3
timestep 0.01
H 0.112 0.112 0.112 
H 3 3 3 
H 6 6 6 
3
timestep 0.02
H 0.124 0.124 0.124 
H 3 3 3 
H 6 6 6 
3
timestep 0.03
H 0.136 0.136 0.136 
H 3 3 3 
H 6 6 6 
3
timestep 0.04
H 0.148 0.148 0.148 
H 3 3 3 
H 6 6 6 
3
timestep 0.05
H 0.16 0.16 0.16 
H 3 3 3 
H 6 6 6 
3
timestep 0.06
H 0.172 0.172 0.172 
H 3 3 3 
H 6 6 6 
3
timestep 0.07
H 0.184 0.184 0.184 
H 3 3 3 
H 6 6 6 
3
timestep 0.08
H 0.196001 0.196001 0.196001 
H 3 3 3 
H 6 6 6 
3
timestep 0.09
H 0.208001 0.208001 0.208001 
H 3 3 3 
H 6 6 6 
3
timestep 0.1
H 0.220001 0.220001 0.220001 
H 3 3 3 
H 6 6 6 
3
timestep 0.11
H 0.232001 0.232001 0.232001 
H 3 3 3 
H 6 6 6 
3
timestep 0.12
H 0.244001 0.244001 0.244001 
H 3 3 3 
H 6 6 6 
3
timestep 0.13
H 0.256002 0.256002 0.256002 
H 3 3 3 
H 6 6 6 
3
timestep 0.14
H 0.268002 0.268002 0.268002 
H 3 3 3 
H 6 6 6 
3
timestep 0.15
H 0.280002 0.280002 0.280002 
H 3 3 3 
H 6 6 6 
3
timestep 0.16
H 0.292003 0.292003 0.292003 
H 3 3 3 
H 6 6 6 
3
timestep 0.17
H 0.304003 0.304003 0.304003 
H 3 3 3 
H 6 6 6 
3
timestep 0.18
H 0.316003 0.316003 0.316003 
H 3 3 3 
H 6 6 6 
3
timestep 0.19
H 0.328004 0.328004 0.328004 
H 3 3 3 
H 6 6 6 
3
timestep 0.2
H 0.340004 0.340004 0.340004 
H 3 3 3 
H 6 6 6 
3
timestep 0.21
H 0.352005 0.352005 0.352005 
H 3 3 3 
H 6 6 6 
3
timestep 0.22
H 0.364005 0.364005 0.364005 
H 3 3 3 
H 6 6 6 
3
timestep 0.23
H 0.376006 0.376006 0.376006 
H 3 3 3 
H 6 6 6 
3
timestep 0.24
H 0.388006 0.388006 0.388006 
H 3 3 3 
H 6 6 6 
3
timestep 0.25
H 0.400007 0.400007 0.400007 
H 3 3 3 
H 6 6 6 
3
timestep 0.26
H 0.412008 0.412008 0.412008 
H 3 3 3 
H 6 6 6 
3
timestep 0.27
H 0.424008 0.424008 0.424008 
H 3 3 3 
H 6 6 6 
3
timestep 0.28
H 0.436009 0.436009 0.436009 
H 3 3 3 
H 6 6 6 
3
timestep 0.29
H 0.44801 0.44801 0.44801 
H 3 3 3 
H 6 6 6 
3
timestep 0.3
H 0.460011 0.460011 0.460011 
H 3 3 3 
H 6 6 6 
3
timestep 0.31
H 0.472012 0.472012 0.472012 
H 2.99999 2.99999 2.99999 
H 6 6 6 
3
timestep 0.32
H 0.484013 0.484013 0.484013 
H 2.99999 2.99999 2.99999 
H 6 6 6 
3
timestep 0.33
H 0.496013 0.496013 0.496013 
H 2.99999 2.99999 2.99999 
H 6 6 6 
3
timestep 0.34
H 0.508014 0.508014 0.508014 
H 2.99999 2.99999 2.99999 
H 6 6 6 
3
timestep 0.35
H 0.520016 0.520016 0.520016 
H 2.99999 2.99999 2.99999 
H 6 6 6 
3
timestep 0.36
H 0.532017 0.532017 0.532017 
H 2.99999 2.99999 2.99999 
H 6 6 6 
3
timestep 0.37
H 0.544018 0.544018 0.544018 
H 2.99999 2.99999 2.99999 
H 6 6 6 
3
timestep 0.38
H 0.556019 0.556019 0.556019 
H 2.99999 2.99999 2.99999 
H 6 6 6 
3
timestep 0.39
H 0.56802 0.56802 0.56802 
H 2.99999 2.99999 2.99999 
H 6 6 6 
3
timestep 0.4
H 0.580022 0.580022 0.580022 
H 2.99999 2.99999 2.99999 
H 6 6 6 
3
timestep 0.41
H 0.592023 0.592023 0.592023 
H 2.99999 2.99999 2.99999 
H 6 6 6 
3
timestep 0.42
H 0.604024 0.604024 0.604024 
H 2.99999 2.99999 2.99999 
H 6 6 6 
3
timestep 0.43
H 0.616026 0.616026 0.616026 
H 2.99999 2.99999 2.99999 
H 6 6 6 
3
timestep 0.44
H 0.628028 0.628028 0.628028 
H 2.99999 2.99999 2.99999 
H 6 6 6 
3
timestep 0.45
H 0.640029 0.640029 0.640029 
H 2.99998 2.99998 2.99998 
H 6 6 6 
3
timestep 0.46
H 0.652031 0.652031 0.652031 
H 2.99998 2.99998 2.99998 
H 6 6 6 
3
timestep 0.47
H 0.664033 0.664033 0.664033 
H 2.99998 2.99998 2.99998 
H 6 6 6 
3
timestep 0.48
H 0.676035 0.676035 0.676035 
H 2.99998 2.99998 2.99998 
H 6 6 6 
3
timestep 0.49
H 0.688037 0.688037 0.688037 
H 2.99998 2.99998 2.99998 
H 6 6 6 
3
timestep 0.5
H 0.700039 0.700039 0.700039 
H 2.99998 2.99998 2.99998 
H 6 6 6 
3
timestep 0.51
H 0.712041 0.712041 0.712041 
H 2.99998 2.99998 2.99998 
H 6 6 6 
3
timestep 0.52
H 0.724043 0.724043 0.724043 
H 2.99998 2.99998 2.99998 
H 6 6 6 
3
timestep 0.53
H 0.736045 0.736045 0.736045 
H 2.99997 2.99997 2.99997 
H 6 6 6 
3
timestep 0.54
H 0.748048 0.748048 0.748048 
H 2.99997 2.99997 2.99997 
H 6 6 6 
3
timestep 0.55
H 0.76005 0.76005 0.76005 
H 2.99997 2.99997 2.99997 
H 5.99999 5.99999 5.99999 
3
timestep 0.56
H 0.772053 0.772053 0.772053 
H 2.99997 2.99997 2.99997 
H 5.99999 5.99999 5.99999 
3
timestep 0.57
H 0.784056 0.784056 0.784056 
H 2.99997 2.99997 2.99997 
H 5.99999 5.99999 5.99999 
3
timestep 0.58
H 0.796059 0.796059 0.796059 
H 2.99996 2.99996 2.99996 
H 5.99999 5.99999 5.99999 
3
timestep 0.59
H 0.808062 0.808062 0.808062 
H 2.99996 2.99996 2.99996 
H 5.99999 5.99999 5.99999 
3
timestep 0.6
H 0.820065 0.820065 0.820065 
H 2.99996 2.99996 2.99996 
H 5.99999 5.99999 5.99999 
3
timestep 0.61
H 0.832068 0.832068 0.832068 
H 2.99996 2.99996 2.99996 
H 5.99999 5.99999 5.99999 
3
timestep 0.62
H 0.844071 0.844071 0.844071 
H 2.99996 2.99996 2.99996 
H 5.99999 5.99999 5.99999 
3
timestep 0.63
H 0.856075 0.856075 0.856075 
H 2.99995 2.99995 2.99995 
H 5.99999 5.99999 5.99999 
3
timestep 0.64
H 0.868078 0.868078 0.868078 
H 2.99995 2.99995 2.99995 
H 5.99999 5.99999 5.99999 
3
timestep 0.65
H 0.880082 0.880082 0.880082 
H 2.99995 2.99995 2.99995 
H 5.99999 5.99999 5.99999 
3
timestep 0.66
H 0.892086 0.892086 0.892086 
H 2.99994 2.99994 2.99994 
H 5.99999 5.99999 5.99999 
3
timestep 0.67
H 0.90409 0.90409 0.90409 
H 2.99994 2.99994 2.99994 
H 5.99999 5.99999 5.99999 
3
timestep 0.68
H 0.916094 0.916094 0.916094 
H 2.99994 2.99994 2.99994 
H 5.99999 5.99999 5.99999 
3
timestep 0.69
H 0.928099 0.928099 0.928099 
H 2.99993 2.99993 2.99993 
H 5.99999 5.99999 5.99999 
3
timestep 0.7
H 0.940103 0.940103 0.940103 
H 2.99993 2.99993 2.99993 
H 5.99999 5.99999 5.99999 
3
timestep 0.71
H 0.952108 0.952108 0.952108 
H 2.99993 2.99993 2.99993 
H 5.99999 5.99999 5.99999 
3
timestep 0.72
H 0.964113 0.964113 0.964113 
H 2.99992 2.99992 2.99992 
H 5.99999 5.99999 5.99999 
3
timestep 0.73
H 0.976118 0.976118 0.976118 
H 2.99992 2.99992 2.99992 
H 5.99999 5.99999 5.99999 
3
timestep 0.74
H 0.988124 0.988124 0.988124 
H 2.99991 2.99991 2.99991 
H 5.99999 5.99999 5.99999 
3
timestep 0.75
H 1.00013 1.00013 1.00013 
H 2.99991 2.99991 2.99991 
H 5.99999 5.99999 5.99999 
3
timestep 0.76
H 1.01214 1.01214 1.01214 
H 2.9999 2.9999 2.9999 
H 5.99999 5.99999 5.99999 
3
timestep 0.77
H 1.02414 1.02414 1.02414 
H 2.9999 2.9999 2.9999 
H 5.99999 5.99999 5.99999 
3
timestep 0.78
H 1.03615 1.03615 1.03615 
H 2.99989 2.99989 2.99989 
H 5.99999 5.99999 5.99999 
3
timestep 0.79
H 1.04815 1.04815 1.04815 
H 2.99989 2.99989 2.99989 
H 5.99999 5.99999 5.99999 
3
timestep 0.8
H 1.06016 1.06016 1.06016 
H 2.99988 2.99988 2.99988 
H 5.99999 5.99999 5.99999 
3
timestep 0.81
H 1.07217 1.07217 1.07217 
H 2.99988 2.99988 2.99988 
H 5.99999 5.99999 5.99999 
3
timestep 0.82
H 1.08418 1.08418 1.08418 
H 2.99987 2.99987 2.99987 
H 5.99999 5.99999 5.99999 
3
timestep 0.83
H 1.09618 1.09618 1.09618 
H 2.99986 2.99986 2.99986 
H 5.99999 5.99999 5.99999 
3
timestep 0.84
H 1.10819 1.10819 1.10819 
H 2.99986 2.99986 2.99986 
H 5.99999 5.99999 5.99999 
3
timestep 0.85
H 1.1202 1.1202 1.1202 
H 2.99985 2.99985 2.99985 
H 5.99999 5.99999 5.99999 
3
timestep 0.86
H 1.13221 1.13221 1.13221 
H 2.99984 2.99984 2.99984 
H 5.99999 5.99999 5.99999 
3
timestep 0.87
H 1.14422 1.14422 1.14422 
H 2.99983 2.99983 2.99983 
H 5.99999 5.99999 5.99999 
3
timestep 0.88
H 1.15623 1.15623 1.15623 
H 2.99983 2.99983 2.99983 
H 5.99999 5.99999 5.99999 
3
timestep 0.89
H 1.16824 1.16824 1.16824 
H 2.99982 2.99982 2.99982 
H 5.99999 5.99999 5.99999 
3
timestep 0.9
H 1.18025 1.18025 1.18025 
H 2.99981 2.99981 2.99981 
H 5.99999 5.99999 5.99999 
3
timestep 0.91
H 1.19226 1.19226 1.19226 
H 2.9998 2.9998 2.9998 
H 5.99999 5.99999 5.99999 
3
timestep 0.92
H 1.20427 1.20427 1.20427 
H 2.99979 2.99979 2.99979 
H 5.99999 5.99999 5.99999 
3
timestep 0.93
H 1.21628 1.21628 1.21628 
H 2.99978 2.99978 2.99978 
H 5.99999 5.99999 5.99999 
3
timestep 0.94
H 1.22829 1.22829 1.22829 
H 2.99977 2.99977 2.99977 
H 5.99998 5.99998 5.99998 
3
timestep 0.95
H 1.24031 1.24031 1.24031 
H 2.99975 2.99975 2.99975 
H 5.99998 5.99998 5.99998 
3
timestep 0.96
H 1.25232 1.25232 1.25232 
H 2.99974 2.99974 2.99974 
H 5.99998 5.99998 5.99998 
3
timestep 0.97
H 1.26434 1.26434 1.26434 
H 2.99973 2.99973 2.99973 
H 5.99998 5.99998 5.99998 
3
timestep 0.98
H 1.27635 1.27635 1.27635 
H 2.99972 2.99972 2.99972 
H 5.99998 5.99998 5.99998 
3
timestep 0.99
H 1.28837 1.28837 1.28837 
H 2.9997 2.9997 2.9997 
H 5.99998 5.99998 5.99998 
3
timestep 1
H 1.30038 1.30038 1.30038 
H 2.99969 2.99969 2.99969 
H 5.99998 5.99998 5.99998 
3
timestep 1.01
H 1.3124 1.3124 1.3124 
H 2.99967 2.99967 2.99967 
H 5.99998 5.99998 5.99998 
3
timestep 1.02
H 1.32442 1.32442 1.32442 
H 2.99966 2.99966 2.99966 
H 5.99998 5.99998 5.99998 
3
timestep 1.03
H 1.33643 1.33643 1.33643 
H 2.99964 2.99964 2.99964 
H 5.99998 5.99998 5.99998 
3
timestep 1.04
H 1.34845 1.34845 1.34845 
H 2.99962 2.99962 2.99962 
H 5.99998 5.99998 5.99998 
3
timestep 1.05
H 1.36047 1.36047 1.36047 
H 2.9996 2.9996 2.9996 
H 5.99998 5.99998 5.99998 
3
timestep 1.06
H 1.37249 1.37249 1.37249 
H 2.99958 2.99958 2.99958 
H 5.99998 5.99998 5.99998 
3
timestep 1.07
H 1.38452 1.38452 1.38452 
H 2.99956 2.99956 2.99956 
H 5.99998 5.99998 5.99998 
3
timestep 1.08
H 1.39654 1.39654 1.39654 
H 2.99954 2.99954 2.99954 
H 5.99998 5.99998 5.99998 
3
timestep 1.09
H 1.40856 1.40856 1.40856 
H 2.99952 2.99952 2.99952 
H 5.99998 5.99998 5.99998 
3
timestep 1.1
H 1.42059 1.42059 1.42059 
H 2.9995 2.9995 2.9995 
H 5.99998 5.99998 5.99998 
3
timestep 1.11
H 1.43261 1.43261 1.43261 
H 2.99947 2.99947 2.99947 
H 5.99998 5.99998 5.99998 
3
timestep 1.12
H 1.44464 1.44464 1.44464 
H 2.99944 2.99944 2.99944 
H 5.99998 5.99998 5.99998 
3
timestep 1.13
H 1.45667 1.45667 1.45667 
H 2.99942 2.99942 2.99942 
H 5.99998 5.99998 5.99998 
3
timestep 1.14
H 1.4687 1.4687 1.4687 
H 2.99939 2.99939 2.99939 
H 5.99998 5.99998 5.99998 
3
timestep 1.15
H 1.48073 1.48073 1.48073 
H 2.99936 2.99936 2.99936 
H 5.99998 5.99998 5.99998 
3
timestep 1.16
H 1.49277 1.49277 1.49277 
H 2.99933 2.99933 2.99933 
H 5.99998 5.99998 5.99998 
3
timestep 1.17
H 1.5048 1.5048 1.5048 
H 2.99929 2.99929 2.99929 
H 5.99998 5.99998 5.99998 
3
timestep 1.18
H 1.51684 1.51684 1.51684 
H 2.99926 2.99926 2.99926 
H 5.99998 5.99998 5.99998 
3
timestep 1.19
H 1.52888 1.52888 1.52888 
H 2.99922 2.99922 2.99922 
H 5.99998 5.99998 5.99998 
3
timestep 1.2
H 1.54092 1.54092 1.54092 
H 2.99918 2.99918 2.99918 
H 5.99998 5.99998 5.99998 
3
timestep 1.21
H 1.55296 1.55296 1.55296 
H 2.99914 2.99914 2.99914 
H 5.99997 5.99997 5.99997 
3
timestep 1.22
H 1.56501 1.56501 1.56501 
H 2.9991 2.9991 2.9991 
H 5.99997 5.99997 5.99997 
3
timestep 1.23
H 1.57705 1.57705 1.57705 
H 2.99905 2.99905 2.99905 
H 5.99997 5.99997 5.99997 
3
timestep 1.24
H 1.5891 1.5891 1.5891 
H 2.999 2.999 2.999 
H 5.99997 5.99997 5.99997 
3
timestep 1.25
H 1.60116 1.60116 1.60116 
H 2.99895 2.99895 2.99895 
H 5.99997 5.99997 5.99997 
3
timestep 1.26
H 1.61321 1.61321 1.61321 
H 2.9989 2.9989 2.9989 
H 5.99997 5.99997 5.99997 
3
timestep 1.27
H 1.62527 1.62527 1.62527 
H 2.99884 2.99884 2.99884 
H 5.99997 5.99997 5.99997 
3
timestep 1.28
H 1.63733 1.63733 1.63733 
H 2.99878 2.99878 2.99878 
H 5.99997 5.99997 5.99997 
3
timestep 1.29
H 1.6494 1.6494 1.6494 
H 2.99872 2.99872 2.99872 
H 5.99997 5.99997 5.99997 
3
timestep 1.3
H 1.66147 1.66147 1.66147 
H 2.99865 2.99865 2.99865 
H 5.99997 5.99997 5.99997 
3
timestep 1.31
H 1.67354 1.67354 1.67354 
H 2.99858 2.99858 2.99858 
H 5.99997 5.99997 5.99997 
3
timestep 1.32
H 1.68561 1.68561 1.68561 
H 2.99851 2.99851 2.99851 
H 5.99997 5.99997 5.99997 
3
timestep 1.33
H 1.6977 1.6977 1.6977 
H 2.99843 2.99843 2.99843 
H 5.99997 5.99997 5.99997 
3
timestep 1.34
H 1.70978 1.70978 1.70978 
H 2.99834 2.99834 2.99834 
H 5.99997 5.99997 5.99997 
3
timestep 1.35
H 1.72187 1.72187 1.72187 
H 2.99825 2.99825 2.99825 
H 5.99997 5.99997 5.99997 
3
timestep 1.36
H 1.73397 1.73397 1.73397 
H 2.99816 2.99816 2.99816 
H 5.99997 5.99997 5.99997 
3
timestep 1.37
H 1.74607 1.74607 1.74607 
H 2.99806 2.99806 2.99806 
H 5.99997 5.99997 5.99997 
3
timestep 1.38
H 1.75818 1.75818 1.75818 
H 2.99796 2.99796 2.99796 
H 5.99997 5.99997 5.99997 
3
timestep 1.39
H 1.77029 1.77029 1.77029 
H 2.99784 2.99784 2.99784 
H 5.99997 5.99997 5.99997 
3
timestep 1.4
H 1.78241 1.78241 1.78241 
H 2.99773 2.99773 2.99773 
H 5.99997 5.99997 5.99997 
3
timestep 1.41
H 1.79454 1.79454 1.79454 
H 2.9976 2.9976 2.9976 
H 5.99997 5.99997 5.99997 
3
timestep 1.42
H 1.80667 1.80667 1.80667 
H 2.99747 2.99747 2.99747 
H 5.99997 5.99997 5.99997 
3
timestep 1.43
H 1.81882 1.81882 1.81882 
H 2.99732 2.99732 2.99732 
H 5.99996 5.99996 5.99996 
3
timestep 1.44
H 1.83097 1.83097 1.83097 
H 2.99717 2.99717 2.99717 
H 5.99996 5.99996 5.99996 
3
timestep 1.45
H 1.84314 1.84314 1.84314 
H 2.99701 2.99701 2.99701 
H 5.99996 5.99996 5.99996 
3
timestep 1.46
H 1.85531 1.85531 1.85531 
H 2.99684 2.99684 2.99684 
H 5.99996 5.99996 5.99996 
3
timestep 1.47
H 1.8675 1.8675 1.8675 
H 2.99665 2.99665 2.99665 
H 5.99996 5.99996 5.99996 
3
timestep 1.48
H 1.87969 1.87969 1.87969 
H 2.99646 2.99646 2.99646 
H 5.99996 5.99996 5.99996 
3
timestep 1.49
H 1.8919 1.8919 1.8919 
H 2.99625 2.99625 2.99625 
H 5.99996 5.99996 5.99996 
3
timestep 1.5
H 1.90413 1.90413 1.90413 
H 2.99603 2.99603 2.99603 
H 5.99996 5.99996 5.99996 
3
timestep 1.51
H 1.91637 1.91637 1.91637 
H 2.99579 2.99579 2.99579 
H 5.99996 5.99996 5.99996 
3
timestep 1.52
H 1.92863 1.92863 1.92863 
H 2.99553 2.99553 2.99553 
H 5.99996 5.99996 5.99996 
3
timestep 1.53
H 1.9409 1.9409 1.9409 
H 2.99526 2.99526 2.99526 
H 5.99996 5.99996 5.99996 
3
timestep 1.54
H 1.95319 1.95319 1.95319 
H 2.99497 2.99497 2.99497 
H 5.99996 5.99996 5.99996 
3
timestep 1.55
H 1.96551 1.96551 1.96551 
H 2.99466 2.99466 2.99466 
H 5.99996 5.99996 5.99996 
3
timestep 1.56
H 1.97785 1.97785 1.97785 
H 2.99432 2.99432 2.99432 
H 5.99996 5.99996 5.99996 
3
timestep 1.57
H 1.99021 1.99021 1.99021 
H 2.99396 2.99396 2.99396 
H 5.99996 5.99996 5.99996 
3
timestep 1.58
H 2.0026 2.0026 2.0026 
H 2.99358 2.99358 2.99358 
H 5.99996 5.99996 5.99996 
3
timestep 1.59
H 2.01502 2.01502 2.01502 
H 2.99316 2.99316 2.99316 
H 5.99996 5.99996 5.99996 
3
timestep 1.6
H 2.02747 2.02747 2.02747 
H 2.99271 2.99271 2.99271 
H 5.99996 5.99996 5.99996 
3
timestep 1.61
H 2.03995 2.03995 2.03995 
H 2.99223 2.99223 2.99223 
H 5.99996 5.99996 5.99996 
3
timestep 1.62
H 2.05247 2.05247 2.05247 
H 2.99171 2.99171 2.99171 
H 5.99995 5.99995 5.99995 
3
timestep 1.63
H 2.06504 2.06504 2.06504 
H 2.99115 2.99115 2.99115 
H 5.99995 5.99995 5.99995 
3
timestep 1.64
H 2.07764 2.07764 2.07764 
H 2.99054 2.99054 2.99054 
H 5.99995 5.99995 5.99995 
3
timestep 1.65
H 2.0903 2.0903 2.0903 
H 2.98989 2.98989 2.98989 
H 5.99995 5.99995 5.99995 
3
timestep 1.66
H 2.10301 2.10301 2.10301 
H 2.98918 2.98918 2.98918 
H 5.99995 5.99995 5.99995 
3
timestep 1.67
H 2.11578 2.11578 2.11578 
H 2.98842 2.98842 2.98842 
H 5.99995 5.99995 5.99995 
3
timestep 1.68
H 2.12861 2.12861 2.12861 
H 2.98759 2.98759 2.98759 
H 5.99995 5.99995 5.99995 
3
timestep 1.69
H 2.14151 2.14151 2.14151 
H 2.98669 2.98669 2.98669 
H 5.99995 5.99995 5.99995 
3
timestep 1.7
H 2.15449 2.15449 2.15449 
H 2.98571 2.98571 2.98571 
H 5.99995 5.99995 5.99995 
3
timestep 1.71
H 2.16756 2.16756 2.16756 
H 2.98465 2.98465 2.98465 
H 5.99995 5.99995 5.99995 
3
timestep 1.72
H 2.18071 2.18071 2.18071 
H 2.9835 2.9835 2.9835 
H 5.99995 5.99995 5.99995 
3
timestep 1.73
H 2.19396 2.19396 2.19396 
H 2.98224 2.98224 2.98224 
H 5.99995 5.99995 5.99995 
3
timestep 1.74
H 2.20733 2.20733 2.20733 
H 2.98088 2.98088 2.98088 
H 5.99995 5.99995 5.99995 
3
timestep 1.75
H 2.22081 2.22081 2.22081 
H 2.97941 2.97941 2.97941 
H 5.99995 5.99995 5.99995 
3
timestep 1.76
H 2.23441 2.23441 2.23441 
H 2.9778 2.9778 2.9778 
H 5.99995 5.99995 5.99995 
3
timestep 1.77
H 2.24815 2.24815 2.24815 
H 2.97607 2.97607 2.97607 
H 5.99995 5.99995 5.99995 
3
timestep 1.78
H 2.26202 2.26202 2.26202 
H 2.9742 2.9742 2.9742 
H 5.99994 5.99994 5.99994 
3
timestep 1.79
H 2.27604 2.27604 2.27604 
H 2.97219 2.97219 2.97219 
H 5.99994 5.99994 5.99994 
3
timestep 1.8
H 2.29018 2.29018 2.29018 
H 2.97005 2.97005 2.97005 
H 5.99994 5.99994 5.99994 
3
timestep 1.81
H 2.30443 2.30443 2.30443 
H 2.9678 2.9678 2.9678 
H 5.99994 5.99994 5.99994 
3
timestep 1.82
H 2.31875 2.31875 2.31875 
H 2.96548 2.96548 2.96548 
H 5.99994 5.99994 5.99994 
3
timestep 1.83
H 2.33307 2.33307 2.33307 
H 2.96317 2.96317 2.96317 
H 5.99994 5.99994 5.99994 
3
timestep 1.84
H 2.34724 2.34724 2.34724 
H 2.96099 2.96099 2.96099 
H 5.99994 5.99994 5.99994 
3
timestep 1.85
H 2.36107 2.36107 2.36107 
H 2.95917 2.95917 2.95917 
H 5.99994 5.99994 5.99994 
3
timestep 1.86
H 2.37423 2.37423 2.37423 
H 2.95801 2.95801 2.95801 
H 5.99994 5.99994 5.99994 
3
timestep 1.87
H 2.38627 2.38627 2.38627 
H 2.95797 2.95797 2.95797 
H 5.99994 5.99994 5.99994 
3
timestep 1.88
H 2.39665 2.39665 2.39665 
H 2.9596 2.9596 2.9596 
H 5.99994 5.99994 5.99994 
3
timestep 1.89
H 2.40483 2.40483 2.40483 
H 2.96342 2.96342 2.96342 
H 5.99994 5.99994 5.99994 
3
timestep 1.9
H 2.4105 2.4105 2.4105 
H 2.96975 2.96975 2.96975 
H 5.99994 5.99994 5.99994 
3
timestep 1.91
H 2.41371 2.41371 2.41371 
H 2.97855 2.97855 2.97855 
H 5.99994 5.99994 5.99994 
3
timestep 1.92
H 2.41485 2.41485 2.41485 
H 2.98941 2.98941 2.98941 
H 5.99994 5.99994 5.99994 
3
timestep 1.93
H 2.41447 2.41447 2.41447 
H 3.00179 3.00179 3.00179 
H 5.99993 5.99993 5.99993 
3
timestep 1.94
H 2.4131 2.4131 2.4131 
H 3.01516 3.01516 3.01516 
H 5.99993 5.99993 5.99993 
3
timestep 1.95
H 2.41116 2.41116 2.41116 
H 3.0291 3.0291 3.0291 
H 5.99993 5.99993 5.99993 
3
timestep 1.96
H 2.40894 2.40894 2.40894 
H 3.04333 3.04333 3.04333 
H 5.99993 5.99993 5.99993 
3
timestep 1.97
H 2.40661 2.40661 2.40661 
H 3.05766 3.05766 3.05766 
H 5.99993 5.99993 5.99993 
3
timestep 1.98
H 2.40431 2.40431 2.40431 
H 3.07197 3.07197 3.07197 
H 5.99993 5.99993 5.99993 
3
timestep 1.99
H 2.40208 2.40208 2.40208 
H 3.0862 3.0862 3.0862 
H 5.99993 5.99993 5.99993 
3
timestep 2
H 2.39997 2.39997 2.39997 
H 3.10031 3.10031 3.10031 
H 5.99993 5.99993 5.99993 
3
timestep 2.01
H 2.398 2.398 2.398 
H 3.11428 3.11428 3.11428 
H 5.99993 5.99993 5.99993 
3
timestep 2.02
H 2.39616 2.39616 2.39616 
H 3.12812 3.12812 3.12812 
H 5.99993 5.99993 5.99993 
3
timestep 2.03
H 2.39446 2.39446 2.39446 
H 3.14183 3.14183 3.14183 
H 5.99993 5.99993 5.99993 
3
timestep 2.04
H 2.39289 2.39289 2.39289 
H 3.1554 3.1554 3.1554 
H 5.99993 5.99993 5.99993 
3
timestep 2.05
H 2.39145 2.39145 2.39145 
H 3.16885 3.16885 3.16885 
H 5.99993 5.99993 5.99993 
3
timestep 2.06
H 2.39012 2.39012 2.39012 
H 3.18218 3.18218 3.18218 
H 5.99993 5.99993 5.99993 
3
timestep 2.07
H 2.38889 2.38889 2.38889 
H 3.19541 3.19541 3.19541 
H 5.99992 5.99992 5.99992 
3
timestep 2.08
H 2.38777 2.38777 2.38777 
H 3.20854 3.20854 3.20854 
H 5.99992 5.99992 5.99992 
3
timestep 2.09
H 2.38673 2.38673 2.38673 
H 3.22158 3.22158 3.22158 
H 5.99992 5.99992 5.99992 
3
timestep 2.1
H 2.38577 2.38577 2.38577 
H 3.23454 3.23454 3.23454 
H 5.99992 5.99992 5.99992 
3
timestep 2.11
H 2.38489 2.38489 2.38489 
H 3.24742 3.24742 3.24742 
H 5.99992 5.99992 5.99992 
3
timestep 2.12
H 2.38408 2.38408 2.38408 
H 3.26024 3.26024 3.26024 
H 5.99992 5.99992 5.99992 
3
timestep 2.13
H 2.38333 2.38333 2.38333 
H 3.27299 3.27299 3.27299 
H 5.99992 5.99992 5.99992 
3
timestep 2.14
H 2.38263 2.38263 2.38263 
H 3.28569 3.28569 3.28569 
H 5.99992 5.99992 5.99992 
3
timestep 2.15
H 2.38199 2.38199 2.38199 
H 3.29833 3.29833 3.29833 
H 5.99992 5.99992 5.99992 
3
timestep 2.16
H 2.3814 2.3814 2.3814 
H 3.31093 3.31093 3.31093 
H 5.99992 5.99992 5.99992 
3
timestep 2.17
H 2.38085 2.38085 2.38085 
H 3.32348 3.32348 3.32348 
H 5.99992 5.99992 5.99992 
3
timestep 2.18
H 2.38034 2.38034 2.38034 
H 3.33599 3.33599 3.33599 
H 5.99992 5.99992 5.99992 
3
timestep 2.19
H 2.37987 2.37987 2.37987 
H 3.34847 3.34847 3.34847 
H 5.99991 5.99991 5.99991 
3
timestep 2.2
H 2.37943 2.37943 2.37943 
H 3.36091 3.36091 3.36091 
H 5.99991 5.99991 5.99991 
3
timestep 2.21
H 2.37902 2.37902 2.37902 
H 3.37332 3.37332 3.37332 
H 5.99991 5.99991 5.99991 
3
timestep 2.22
H 2.37865 2.37865 2.37865 
H 3.38571 3.38571 3.38571 
H 5.99991 5.99991 5.99991 
3
timestep 2.23
H 2.37829 2.37829 2.37829 
H 3.39806 3.39806 3.39806 
H 5.99991 5.99991 5.99991 
3
timestep 2.24
H 2.37796 2.37796 2.37796 
H 3.41039 3.41039 3.41039 
H 5.99991 5.99991 5.99991 
3
timestep 2.25
H 2.37766 2.37766 2.37766 
H 3.4227 3.4227 3.4227 
H 5.99991 5.99991 5.99991 
3
timestep 2.26
H 2.37737 2.37737 2.37737 
H 3.43499 3.43499 3.43499 
H 5.99991 5.99991 5.99991 
3
timestep 2.27
H 2.3771 2.3771 2.3771 
H 3.44727 3.44727 3.44727 
H 5.99991 5.99991 5.99991 
3
timestep 2.28
H 2.37685 2.37685 2.37685 
H 3.45952 3.45952 3.45952 
H 5.99991 5.99991 5.99991 
3
timestep 2.29
H 2.37662 2.37662 2.37662 
H 3.47176 3.47176 3.47176 
H 5.99991 5.99991 5.99991 
3
timestep 2.3
H 2.3764 2.3764 2.3764 
H 3.48398 3.48398 3.48398 
H 5.9999 5.9999 5.9999 
3
timestep 2.31
H 2.3762 2.3762 2.3762 
H 3.49619 3.49619 3.49619 
H 5.9999 5.9999 5.9999 
3
timestep 2.32
H 2.37601 2.37601 2.37601 
H 3.50838 3.50838 3.50838 
H 5.9999 5.9999 5.9999 
3
timestep 2.33
H 2.37583 2.37583 2.37583 
H 3.52057 3.52057 3.52057 
H 5.9999 5.9999 5.9999 
3
timestep 2.34
H 2.37566 2.37566 2.37566 
H 3.53274 3.53274 3.53274 
H 5.9999 5.9999 5.9999 
3
timestep 2.35
H 2.3755 2.3755 2.3755 
H 3.5449 3.5449 3.5449 
H 5.9999 5.9999 5.9999 
3
timestep 2.36
H 2.37535 2.37535 2.37535 
H 3.55705 3.55705 3.55705 
H 5.9999 5.9999 5.9999 
3
timestep 2.37
H 2.37521 2.37521 2.37521 
H 3.5692 3.5692 3.5692 
H 5.9999 5.9999 5.9999 
3
timestep 2.38
H 2.37508 2.37508 2.37508 
H 3.58133 3.58133 3.58133 
H 5.9999 5.9999 5.9999 
3
timestep 2.39
H 2.37496 2.37496 2.37496 
H 3.59346 3.59346 3.59346 
H 5.9999 5.9999 5.9999 
3
timestep 2.4
H 2.37484 2.37484 2.37484 
H 3.60558 3.60558 3.60558 
H 5.99989 5.99989 5.99989 
3
timestep 2.41
H 2.37473 2.37473 2.37473 
H 3.61769 3.61769 3.61769 
H 5.99989 5.99989 5.99989 
3
timestep 2.42
H 2.37463 2.37463 2.37463 
H 3.6298 3.6298 3.6298 
H 5.99989 5.99989 5.99989 
3
timestep 2.43
H 2.37453 2.37453 2.37453 
H 3.6419 3.6419 3.6419 
H 5.99989 5.99989 5.99989 
3
timestep 2.44
H 2.37444 2.37444 2.37444 
H 3.654 3.654 3.654 
H 5.99989 5.99989 5.99989 
3
timestep 2.45
H 2.37435 2.37435 2.37435 
H 3.66609 3.66609 3.66609 
H 5.99989 5.99989 5.99989 
3
timestep 2.46
H 2.37427 2.37427 2.37427 
H 3.67818 3.67818 3.67818 
H 5.99989 5.99989 5.99989 
3
timestep 2.47
H 2.3742 2.3742 2.3742 
H 3.69026 3.69026 3.69026 
H 5.99989 5.99989 5.99989 
3
timestep 2.48
H 2.37412 2.37412 2.37412 
H 3.70234 3.70234 3.70234 
H 5.99988 5.99988 5.99988 
3
timestep 2.49
H 2.37406 2.37406 2.37406 
H 3.71441 3.71441 3.71441 
H 5.99988 5.99988 5.99988 
3
timestep 2.5
H 2.37399 2.37399 2.37399 
H 3.72648 3.72648 3.72648 
H 5.99988 5.99988 5.99988 
3
timestep 2.51
H 2.37393 2.37393 2.37393 
H 3.73855 3.73855 3.73855 
H 5.99988 5.99988 5.99988 
3
timestep 2.52
H 2.37387 2.37387 2.37387 
H 3.75061 3.75061 3.75061 
H 5.99988 5.99988 5.99988 
3
timestep 2.53
H 2.37382 2.37382 2.37382 
H 3.76267 3.76267 3.76267 
H 5.99988 5.99988 5.99988 
3
timestep 2.54
H 2.37376 2.37376 2.37376 
H 3.77473 3.77473 3.77473 
H 5.99988 5.99988 5.99988 
3
timestep 2.55
H 2.37372 2.37372 2.37372 
H 3.78678 3.78678 3.78678 
H 5.99988 5.99988 5.99988 
3
timestep 2.56
H 2.37367 2.37367 2.37367 
H 3.79884 3.79884 3.79884 
H 5.99987 5.99987 5.99987 
3
timestep 2.57
H 2.37362 2.37362 2.37362 
H 3.81089 3.81089 3.81089 
H 5.99987 5.99987 5.99987 
3
timestep 2.58
H 2.37358 2.37358 2.37358 
H 3.82293 3.82293 3.82293 
H 5.99987 5.99987 5.99987 
3
timestep 2.59
H 2.37354 2.37354 2.37354 
H 3.83498 3.83498 3.83498 
H 5.99987 5.99987 5.99987 
3
timestep 2.6
H 2.37351 2.37351 2.37351 
H 3.84702 3.84702 3.84702 
H 5.99987 5.99987 5.99987 
3
timestep 2.61
H 2.37347 2.37347 2.37347 
H 3.85907 3.85907 3.85907 
H 5.99987 5.99987 5.99987 
3
timestep 2.62
H 2.37344 2.37344 2.37344 
H 3.87111 3.87111 3.87111 
H 5.99986 5.99986 5.99986 
3
timestep 2.63
H 2.3734 2.3734 2.3734 
H 3.88315 3.88315 3.88315 
H 5.99986 5.99986 5.99986 
3
timestep 2.64
H 2.37337 2.37337 2.37337 
H 3.89518 3.89518 3.89518 
H 5.99986 5.99986 5.99986 
3
timestep 2.65
H 2.37335 2.37335 2.37335 
H 3.90722 3.90722 3.90722 
H 5.99986 5.99986 5.99986 
3
timestep 2.66
H 2.37332 2.37332 2.37332 
H 3.91925 3.91925 3.91925 
H 5.99986 5.99986 5.99986 
3
timestep 2.67
H 2.37329 2.37329 2.37329 
H 3.93129 3.93129 3.93129 
H 5.99986 5.99986 5.99986 
3
timestep 2.68
H 2.37327 2.37327 2.37327 
H 3.94332 3.94332 3.94332 
H 5.99985 5.99985 5.99985 
3
timestep 2.69
H 2.37325 2.37325 2.37325 
H 3.95535 3.95535 3.95535 
H 5.99985 5.99985 5.99985 
3
timestep 2.7
H 2.37322 2.37322 2.37322 
H 3.96738 3.96738 3.96738 
H 5.99985 5.99985 5.99985 
3
timestep 2.71
H 2.3732 2.3732 2.3732 
H 3.97941 3.97941 3.97941 
H 5.99985 5.99985 5.99985 
3
timestep 2.72
H 2.37318 2.37318 2.37318 
H 3.99144 3.99144 3.99144 
H 5.99985 5.99985 5.99985 
3
timestep 2.73
H 2.37316 2.37316 2.37316 
H 4.00347 4.00347 4.00347 
H 5.99984 5.99984 5.99984 
3
timestep 2.74
H 2.37315 2.37315 2.37315 
H 4.01549 4.01549 4.01549 
H 5.99984 5.99984 5.99984 
3
timestep 2.75
H 2.37313 2.37313 2.37313 
H 4.02752 4.02752 4.02752 
H 5.99984 5.99984 5.99984 
3
timestep 2.76
H 2.37311 2.37311 2.37311 
H 4.03954 4.03954 4.03954 
H 5.99984 5.99984 5.99984 
3
timestep 2.77
H 2.3731 2.3731 2.3731 
H 4.05157 4.05157 4.05157 
H 5.99983 5.99983 5.99983 
3
timestep 2.78
H 2.37308 2.37308 2.37308 
H 4.06359 4.06359 4.06359 
H 5.99983 5.99983 5.99983 
3
timestep 2.79
H 2.37307 2.37307 2.37307 
H 4.07562 4.07562 4.07562 
H 5.99983 5.99983 5.99983 
3
timestep 2.8
H 2.37306 2.37306 2.37306 
H 4.08764 4.08764 4.08764 
H 5.99983 5.99983 5.99983 
3
timestep 2.81
H 2.37304 2.37304 2.37304 
H 4.09966 4.09966 4.09966 
H 5.99982 5.99982 5.99982 
3
timestep 2.82
H 2.37303 2.37303 2.37303 
H 4.11169 4.11169 4.11169 
H 5.99982 5.99982 5.99982 
3
timestep 2.83
H 2.37302 2.37302 2.37302 
H 4.12371 4.12371 4.12371 
H 5.99982 5.99982 5.99982 
3
timestep 2.84
H 2.37301 2.37301 2.37301 
H 4.13573 4.13573 4.13573 
H 5.99981 5.99981 5.99981 
3
timestep 2.85
H 2.373 2.373 2.373 
H 4.14775 4.14775 4.14775 
H 5.99981 5.99981 5.99981 
3
timestep 2.86
H 2.37299 2.37299 2.37299 
H 4.15978 4.15978 4.15978 
H 5.99981 5.99981 5.99981 
3
timestep 2.87
H 2.37298 2.37298 2.37298 
H 4.1718 4.1718 4.1718 
H 5.9998 5.9998 5.9998 
3
timestep 2.88
H 2.37297 2.37297 2.37297 
H 4.18382 4.18382 4.18382 
H 5.9998 5.9998 5.9998 
3
timestep 2.89
H 2.37297 2.37297 2.37297 
H 4.19584 4.19584 4.19584 
H 5.9998 5.9998 5.9998 
3
timestep 2.9
H 2.37296 2.37296 2.37296 
H 4.20787 4.20787 4.20787 
H 5.99979 5.99979 5.99979 
3
timestep 2.91
H 2.37295 2.37295 2.37295 
H 4.21989 4.21989 4.21989 
H 5.99979 5.99979 5.99979 
3
timestep 2.92
H 2.37295 2.37295 2.37295 
H 4.23191 4.23191 4.23191 
H 5.99979 5.99979 5.99979 
3
timestep 2.93
H 2.37294 2.37294 2.37294 
H 4.24393 4.24393 4.24393 
H 5.99978 5.99978 5.99978 
3
timestep 2.94
H 2.37293 2.37293 2.37293 
H 4.25595 4.25595 4.25595 
H 5.99978 5.99978 5.99978 
3
timestep 2.95
H 2.37293 2.37293 2.37293 
H 4.26798 4.26798 4.26798 
H 5.99977 5.99977 5.99977 
3
timestep 2.96
H 2.37292 2.37292 2.37292 
H 4.28 4.28 4.28 
H 5.99977 5.99977 5.99977 
3
timestep 2.97
H 2.37292 2.37292 2.37292 
H 4.29202 4.29202 4.29202 
H 5.99976 5.99976 5.99976 
3
timestep 2.98
H 2.37291 2.37291 2.37291 
H 4.30405 4.30405 4.30405 
H 5.99976 5.99976 5.99976 
3
timestep 2.99
H 2.37291 2.37291 2.37291 
H 4.31607 4.31607 4.31607 
H 5.99975 5.99975 5.99975 
3
timestep 3
H 2.37291 2.37291 2.37291 
H 4.3281 4.3281 4.3281 
H 5.99975 5.99975 5.99975 
3
timestep 3.01
H 2.3729 2.3729 2.3729 
H 4.34012 4.34012 4.34012 
H 5.99974 5.99974 5.99974 
3
timestep 3.02
H 2.3729 2.3729 2.3729 
H 4.35215 4.35215 4.35215 
H 5.99974 5.99974 5.99974 
3
timestep 3.03
H 2.3729 2.3729 2.3729 
H 4.36417 4.36417 4.36417 
H 5.99973 5.99973 5.99973 
3
timestep 3.04
H 2.37289 2.37289 2.37289 
H 4.3762 4.3762 4.3762 
H 5.99973 5.99973 5.99973 
3
timestep 3.05
H 2.37289 2.37289 2.37289 
H 4.38823 4.38823 4.38823 
H 5.99972 5.99972 5.99972 
3
timestep 3.06
H 2.37289 2.37289 2.37289 
H 4.40026 4.40026 4.40026 
H 5.99971 5.99971 5.99971 
3
timestep 3.07
H 2.37289 2.37289 2.37289 
H 4.41229 4.41229 4.41229 
H 5.99971 5.99971 5.99971 
3
timestep 3.08
H 2.37288 2.37288 2.37288 
H 4.42432 4.42432 4.42432 
H 5.9997 5.9997 5.9997 
3
timestep 3.09
H 2.37288 2.37288 2.37288 
H 4.43635 4.43635 4.43635 
H 5.99969 5.99969 5.99969 
3
timestep 3.1
H 2.37288 2.37288 2.37288 
H 4.44838 4.44838 4.44838 
H 5.99968 5.99968 5.99968 
3
timestep 3.11
H 2.37288 2.37288 2.37288 
H 4.46042 4.46042 4.46042 
H 5.99968 5.99968 5.99968 
3
timestep 3.12
H 2.37288 2.37288 2.37288 
H 4.47245 4.47245 4.47245 
H 5.99967 5.99967 5.99967 
3
timestep 3.13
H 2.37288 2.37288 2.37288 
H 4.48449 4.48449 4.48449 
H 5.99966 5.99966 5.99966 
3
timestep 3.14
H 2.37288 2.37288 2.37288 
H 4.49653 4.49653 4.49653 
H 5.99965 5.99965 5.99965 
3
timestep 3.15
H 2.37287 2.37287 2.37287 
H 4.50857 4.50857 4.50857 
H 5.99964 5.99964 5.99964 
3
timestep 3.16
H 2.37287 2.37287 2.37287 
H 4.52061 4.52061 4.52061 
H 5.99963 5.99963 5.99963 
3
timestep 3.17
H 2.37287 2.37287 2.37287 
H 4.53265 4.53265 4.53265 
H 5.99962 5.99962 5.99962 
3
timestep 3.18
H 2.37287 2.37287 2.37287 
H 4.5447 4.5447 4.5447 
H 5.99961 5.99961 5.99961 
3
timestep 3.19
H 2.37287 2.37287 2.37287 
H 4.55674 4.55674 4.55674 
H 5.9996 5.9996 5.9996 
3
timestep 3.2
H 2.37287 2.37287 2.37287 
H 4.56879 4.56879 4.56879 
H 5.99958 5.99958 5.99958 
3
timestep 3.21
H 2.37287 2.37287 2.37287 
H 4.58084 4.58084 4.58084 
H 5.99957 5.99957 5.99957 
3
timestep 3.22
H 2.37287 2.37287 2.37287 
H 4.5929 4.5929 4.5929 
H 5.99956 5.99956 5.99956 
3
timestep 3.23
H 2.37287 2.37287 2.37287 
H 4.60496 4.60496 4.60496 
H 5.99954 5.99954 5.99954 
3
timestep 3.24
H 2.37287 2.37287 2.37287 
H 4.61701 4.61701 4.61701 
H 5.99953 5.99953 5.99953 
3
timestep 3.25
H 2.37287 2.37287 2.37287 
H 4.62908 4.62908 4.62908 
H 5.99951 5.99951 5.99951 
3
timestep 3.26
H 2.37288 2.37288 2.37288 
H 4.64114 4.64114 4.64114 
H 5.9995 5.9995 5.9995 
3
timestep 3.27