3
timestep 0.001
H 0.102202 0.103302 0 
H 3.003 3 0 
H 6.00404 5.99804 0 
3
timestep 0.002
H 0.108615 0.110809 0 
H 3.006 3 0 
H 6.00414 5.99214 0 
3
timestep 0.003
H 0.119257 0.122533 0 
H 3.009 3 0 
H 6.0003 5.98231 0 
3
timestep 0.004
H 0.13416 0.1385 0 
H 3.012 3 0 
H 5.99249 5.96853 0 
3
timestep 0.005
H 0.153368 0.158748 0 
H 3.015 3 0 
H 5.98068 5.95075 0 
3
timestep 0.006
H 0.17694 0.183328 0 
H 3.018 3 0 
H 5.96481 5.92895 0 
3
timestep 0.007
H 0.20495 0.212308 0 
H 3.021 3 0 
H 5.94484 5.90306 0 
3
timestep 0.008
H 0.237485 0.245768 0 
H 3.024 3 0 
H 5.92069 5.87302 0 
3
timestep 0.009
H 0.274654 0.283808 0 
H 3.027 3 0 
H 5.89227 5.83876 0 
3
timestep 0.01
H 0.316582 0.326545 0 
H 3.03 3 0 
H 5.85948 5.80016 0 
3
timestep 0.011
H 0.36342 0.37412 0 
H 3.033 3 0 
H 5.82221 5.75713 0 
3
timestep 0.012
H 0.415343 0.426695 0 
H 3.036 3 0 
H 5.78032 5.70952 0 
3
timestep 0.013
H 0.472554 0.484464 0 
H 3.039 3 0 
H 5.73364 5.65719 0 
3
timestep 0.014
H 0.535296 0.547653 0 
H 3.042 3 0 
H 5.68199 5.59996 0 
3
timestep 0.015
H 0.60385 0.616529 0 
H 3.045 3 0 
H 5.62515 5.53762 0 
3
timestep 0.016
H 0.678551 0.691407 0 
H 3.048 3 0 
H 5.56286 5.46993 0 
3
timestep 0.017
H 0.759797 0.772661 0 
H 3.051 3 0 
H 5.49484 5.39659 0 
3
timestep 0.018
H 0.848065 0.860742 0 
H 3.054 3 0 
H 5.42072 5.31728 0 
3
timestep 0.019
H 0.943936 0.956196 0 
H 3.057 3 0 
H 5.34009 5.23159 0 
3
timestep 0.02
H 1.04812 1.05969 0 
H 3.06 3 0 
H 5.25244 5.13904 0 
3
timestep 0.021
H 1.16153 1.17208 0 
H 3.063 3 0 
H 5.15716 5.03905 0 
3
timestep 0.022
H 1.28529 1.29442 0 
H 3.066 3 0 
H 5.05349 4.9309 0 
3
timestep 0.023
H 1.42093 1.42815 0 
H 3.069 3 0 
H 4.94049 4.81367 0 
3
timestep 0.024
H 1.57052 1.57518 0 
H 3.072 3 0 
H 4.81691 4.68619 0 
3
timestep 0.025
H 1.73705 1.73827 0 
H 3.075 3 0 
H 4.68112 4.54691 0 
3
timestep 0.026
H 1.92508 1.92165 0 
H 3.078 3 0 
H 4.53084 4.39368 0 
3
timestep 0.027
H 2.14243 2.13244 0 
H 3.081 3 0 
H 4.36276 4.22337 0 
3
timestep 0.028
H 2.40472 2.38479 0 
H 3.084 3 0 
H 4.17164 4.03107 0 
3
timestep 0.029
H 2.75526 2.71705 0 
H 3.087 3 0 
H 3.94821 3.80814 0 
3
timestep 0.03
H 3.50603 3.39069 0 
H 3.08999 2.99999 0 
H 3.67249 3.53615 0 
3
timestep 0.031
H 4.03303 3.85417 0 
H 3.09299 2.99999 0 
H 3.27937 3.15609 0 
3
timestep 0.032
H 4.51415 4.27598 0 
H 3.096 3 0 
H 1.58917 1.68968 0 
2
timestep 0.033
H 4.97484 4.6794 0 
H 3.09901 3.00001 0 
2
timestep 0.034
H 5.42378 5.0723 0 
H 3.10203 3.00002 0 
2
timestep 0.035
H 5.86502 5.45833 0 
H 3.10504 3.00003 0 
2
timestep 0.036
H 6.30079 5.83949 0 
H 3.10805 3.00004 0 
2
timestep 0.037
H 6.73246 6.217 0 
H 3.11106 3.00005 0 
2
timestep 0.038
H 7.16095 6.59169 0 
H 3.11408 3.00007 0 
2
timestep 0.039
H 7.58689 6.96411 0 
H 3.11709 3.00008 0 
2
timestep 0.04
H 8.01073 7.33467 0 
H 3.1201 3.00009 0 
2
timestep 0.041
H 8.43281 7.70368 0 
H 3.12311 3.0001 0 
2
timestep 0.042
H 8.85341 8.07137 0 
H 3.12613 3.00011 0 
2
timestep 0.043
H 9.27273 8.43793 0 
H 3.12914 3.00012 0 
2
timestep 0.044
H 9.69094 8.8035 0 
H 3.13215 3.00013 0 
1
timestep 0.045
H 3.13516 3.00014 0 
1
timestep 0.046
H 3.13818 3.00015 0 
1
timestep 0.047
H 3.14119 3.00016 0 
1
timestep 0.048
H 3.1442 3.00017 0 
1
timestep 0.049
H 3.14721 3.00018 0 
1
timestep 0.05
H 3.15023 3.0002 0 
1
timestep 0.051
H 3.15324 3.00021 0 
1
timestep 0.052
H 3.15625 3.00022 0 
1
timestep 0.053
H 3.15926 3.00023 0 
1
timestep 0.054
H 3.16228 3.00024 0 
1
timestep 0.055
H 3.16529 3.00025 0 
1
timestep 0.056
H 3.1683 3.00026 0 
1
timestep 0.057
H 3.17132 3.00027 0 
1
timestep 0.058
H 3.17433 3.00028 0 
1
timestep 0.059
H 3.17734 3.00029 0 
1
timestep 0.06
H 3.18035 3.0003 0 
1
timestep 0.061
H 3.18337 3.00032 0 
1
timestep 0.062
H 3.18638 3.00033 0 
1
timestep 0.063
H 3.18939 3.00034 0 
1
timestep 0.064
H 3.1924 3.00035 0 
1
timestep 0.065
H 3.19542 3.00036 0 
1
timestep 0.066
H 3.19843 3.00037 0 
1
timestep 0.067
H 3.20144 3.00038 0 
1
timestep 0.068
H 3.20445 3.00039 0 
1
timestep 0.069
H 3.20747 3.0004 0 
1
timestep 0.07
H 3.21048 3.00041 0 
1
timestep 0.071
H 3.21349 3.00042 0 
1
timestep 0.072
H 3.2165 3.00043 0 
1
timestep 0.073
H 3.21952 3.00045 0 
1
timestep 0.074
H 3.22253 3.00046 0 
1
timestep 0.075
H 3.22554 3.00047 0 
1
timestep 0.076
H 3.22855 3.00048 0 
1
timestep 0.077
H 3.23157 3.00049 0 
1
timestep 0.078
H 3.23458 3.0005 0 
1
timestep 0.079
H 3.23759 3.00051 0 
1
timestep 0.08
H 3.24061 3.00052 0 
1
timestep 0.081
H 3.24362 3.00053 0 
1
timestep 0.082
H 3.24663 3.00054 0 
1
timestep 0.083
H 3.24964 3.00055 0 
1
timestep 0.084
H 3.25266 3.00057 0 
1
timestep 0.085
H 3.25567 3.00058 0 
1
timestep 0.086
H 3.25868 3.00059 0 
1
timestep 0.087
H 3.26169 3.0006 0 
1
timestep 0.088
H 3.26471 3.00061 0 
1
timestep 0.089
H 3.26772 3.00062 0 
1
timestep 0.09
H 3.27073 3.00063 0 
1
timestep 0.091
H 3.27374 3.00064 0 
1
timestep 0.092
H 3.27676 3.00065 0 
1
timestep 0.093
H 3.27977 3.00066 0 
1
timestep 0.094
H 3.28278 3.00067 0 
1
timestep 0.095
H 3.28579 3.00068 0 
1
timestep 0.096
H 3.28881 3.0007 0 
1
timestep 0.097
H 3.29182 3.00071 0 
1
timestep 0.098
H 3.29483 3.00072 0 
1
timestep 0.099
H 3.29784 3.00073 0 
1
timestep 0.1
H 3.30086 3.00074 0 
1
timestep 0.101
H 3.30387 3.00075 0 
1
timestep 0.102
H 3.30688 3.00076 0 
1
timestep 0.103
H 3.30989 3.00077 0 
1
timestep 0.104
H 3.31291 3.00078 0 
1
timestep 0.105
H 3.31592 3.00079 0 
1
timestep 0.106
H 3.31893 3.0008 0 
1
timestep 0.107
H 3.32195 3.00082 0 
1
timestep 0.108
H 3.32496 3.00083 0 
1
timestep 0.109
H 3.32797 3.00084 0 
1
timestep 0.11
H 3.33098 3.00085 0 
1
timestep 0.111
H 3.334 3.00086 0 
1
timestep 0.112
H 3.33701 3.00087 0 
1
timestep 0.113
H 3.34002 3.00088 0 
1
timestep 0.114
H 3.34303 3.00089 0 
1
timestep 0.115
H 3.34605 3.0009 0 
1
timestep 0.116
H 3.34906 3.00091 0 
1
timestep 0.117
H 3.35207 3.00092 0 
1
timestep 0.118
H 3.35508 3.00093 0 
1
timestep 0.119
H 3.3581 3.00095 0 
1
timestep 0.12
H 3.36111 3.00096 0 
1
timestep 0.121
H 3.36412 3.00097 0 
1
timestep 0.122
H 3.36713 3.00098 0 
1
timestep 0.123
H 3.37015 3.00099 0 
1
timestep 0.124
H 3.37316 3.001 0 
1
timestep 0.125
H 3.37617 3.00101 0 
1
timestep 0.126
H 3.37918 3.00102 0 
1
timestep 0.127
H 3.3822 3.00103 0 
1
timestep 0.128
H 3.38521 3.00104 0 
1
timestep 0.129
H 3.38822 3.00105 0 
1
timestep 0.13
H 3.39124 3.00106 0 
1
timestep 0.131
H 3.39425 3.00108 0 
1
timestep 0.132
H 3.39726 3.00109 0 
1
timestep 0.133
H 3.40027 3.0011 0 
1
timestep 0.134
H 3.40329 3.00111 0 
1
timestep 0.135
H 3.4063 3.00112 0 
1
timestep 0.136
H 3.40931 3.00113 0 
1
timestep 0.137
H 3.41232 3.00114 0 
1
timestep 0.138
H 3.41534 3.00115 0 
1
timestep 0.139
H 3.41835 3.00116 0 
1
timestep 0.14
H 3.42136 3.00117 0 
1
timestep 0.141
H 3.42437 3.00118 0 
1
timestep 0.142
H 3.42739 3.0012 0 
1
timestep 0.143
H 3.4304 3.00121 0 
1
timestep 0.144
H 3.43341 3.00122 0 
1
timestep 0.145
H 3.43642 3.00123 0 
1
timestep 0.146
H 3.43944 3.00124 0 
1
timestep 0.147
H 3.44245 3.00125 0 
1
timestep 0.148
H 3.44546 3.00126 0 
1
timestep 0.149
H 3.44847 3.00127 0 
1
timestep 0.15
H 3.45149 3.00128 0 
1
timestep 0.151
H 3.4545 3.00129 0 
1
timestep 0.152
H 3.45751 3.0013 0 
1
timestep 0.153
H 3.46052 3.00131 0 
1
timestep 0.154
H 3.46354 3.00133 0 
1
timestep 0.155
H 3.46655 3.00134 0 
1
timestep 0.156
H 3.46956 3.00135 0 
1
timestep 0.157
H 3.47258 3.00136 0 
1
timestep 0.158
H 3.47559 3.00137 0 
1
timestep 0.159
H 3.4786 3.00138 0 
1
timestep 0.16
H 3.48161 3.00139 0 
1
timestep 0.161
H 3.48463 3.0014 0 
1
timestep 0.162
H 3.48764 3.00141 0 
1
timestep 0.163
H 3.49065 3.00142 0 
1
timestep 0.164
H 3.49366 3.00143 0 
1
timestep 0.165
H 3.49668 3.00145 0 
1
timestep 0.166
H 3.49969 3.00146 0 
1
timestep 0.167
H 3.5027 3.00147 0 
1
timestep 0.168
H 3.50571 3.00148 0 
1
timestep 0.169
H 3.50873 3.00149 0 
1
timestep 0.17
H 3.51174 3.0015 0 
1
timestep 0.171
H 3.51475 3.00151 0 
1
timestep 0.172
H 3.51776 3.00152 0 
1
timestep 0.173
H 3.52078 3.00153 0 
1
timestep 0.174
H 3.52379 3.00154 0 
1
timestep 0.175
H 3.5268 3.00155 0 
1
timestep 0.176
H 3.52981 3.00156 0 
1
timestep 0.177
H 3.53283 3.00158 0 
1
timestep 0.178
H 3.53584 3.00159 0 
1
timestep 0.179
H 3.53885 3.0016 0 
1
timestep 0.18
H 3.54187 3.00161 0 
1
timestep 0.181
H 3.54488 3.00162 0 
1
timestep 0.182
H 3.54789 3.00163 0 
1
timestep 0.183
H 3.5509 3.00164 0 
1
timestep 0.184
H 3.55392 3.00165 0 
1
timestep 0.185
H 3.55693 3.00166 0 
1
timestep 0.186
H 3.55994 3.00167 0 
1
timestep 0.187
H 3.56295 3.00168 0 
1
timestep 0.188
H 3.56597 3.0017 0 
1
timestep 0.189
H 3.56898 3.00171 0 
1
timestep 0.19
H 3.57199 3.00172 0 
1
timestep 0.191
H 3.575 3.00173 0 
1
timestep 0.192
H 3.57802 3.00174 0 
1
timestep 0.193
H 3.58103 3.00175 0 
1
timestep 0.194
H 3.58404 3.00176 0 
1
timestep 0.195
H 3.58705 3.00177 0 
1
timestep 0.196
H 3.59007 3.00178 0 
1
timestep 0.197
H 3.59308 3.00179 0 
1
timestep 0.198
H 3.59609 3.0018 0 
1
timestep 0.199
H 3.5991 3.00181 0 
1
timestep 0.2
H 3.60212 3.00183 0 
1
timestep 0.201
H 3.60513 3.00184 0 
1
timestep 0.202
H 3.60814 3.00185 0 
1
timestep 0.203
H 3.61116 3.00186 0 
1
timestep 0.204
H 3.61417 3.00187 0 
1
timestep 0.205
H 3.61718 3.00188 0 
1
timestep 0.206
H 3.62019 3.00189 0 
1
timestep 0.207
H 3.62321 3.0019 0 
1
timestep 0.208
H 3.62622 3.00191 0 
1
timestep 0.209
H 3.62923 3.00192 0 
1
timestep 0.21
H 3.63224 3.00193 0 
1
timestep 0.211
H 3.63526 3.00194 0 
1
timestep 0.212
H 3.63827 3.00196 0 
1
timestep 0.213
H 3.64128 3.00197 0 
1
timestep 0.214
H 3.64429 3.00198 0 
1
timestep 0.215
H 3.64731 3.00199 0 
1
timestep 0.216
H 3.65032 3.002 0 
1
timestep 0.217
H 3.65333 3.00201 0 
1
timestep 0.218
H 3.65634 3.00202 0 
1
timestep 0.219
H 3.65936 3.00203 0 
1
timestep 0.22
H 3.66237 3.00204 0 
1
timestep 0.221
H 3.66538 3.00205 0 
1
timestep 0.222
H 3.66839 3.00206 0 
1
timestep 0.223
H 3.67141 3.00208 0 
1
timestep 0.224
H 3.67442 3.00209 0 
1
timestep 0.225
H 3.67743 3.0021 0 
1
timestep 0.226
H 3.68044 3.00211 0 
1
timestep 0.227
H 3.68346 3.00212 0 
1
timestep 0.228
H 3.68647 3.00213 0 
1
timestep 0.229
H 3.68948 3.00214 0 
1
timestep 0.23
H 3.6925 3.00215 0 
1
timestep 0.231
H 3.69551 3.00216 0 
1
timestep 0.232
H 3.69852 3.00217 0 
1
timestep 0.233
H 3.70153 3.00218 0 
1
timestep 0.234
H 3.70455 3.00219 0 
1
timestep 0.235
H 3.70756 3.00221 0 
1
timestep 0.236
H 3.71057 3.00222 0 
1
timestep 0.237
H 3.71358 3.00223 0 
1
timestep 0.238
H 3.7166 3.00224 0 
1
timestep 0.239
H 3.71961 3.00225 0 
1
timestep 0.24
H 3.72262 3.00226 0 
1
timestep 0.241
H 3.72563 3.00227 0 
1
timestep 0.242
H 3.72865 3.00228 0 
1
timestep 0.243
H 3.73166 3.00229 0 
1
timestep 0.244
H 3.73467 3.0023 0 
1
timestep 0.245
H 3.73768 3.00231 0 
1
timestep 0.246
H 3.7407 3.00233 0 
1
timestep 0.247
H 3.74371 3.00234 0 
1
timestep 0.248
H 3.74672 3.00235 0 
1
timestep 0.249
H 3.74973 3.00236 0 
1
timestep 0.25
H 3.75275 3.00237 0 
1
timestep 0.251
H 3.75576 3.00238 0 
1
timestep 0.252
H 3.75877 3.00239 0 
1
timestep 0.253
H 3.76179 3.0024 0 
1
timestep 0.254
H 3.7648 3.00241 0 
1
timestep 0.255
H 3.76781 3.00242 0 
1
timestep 0.256
H 3.77082 3.00243 0 
1
timestep 0.257
H 3.77384 3.00244 0 
1
timestep 0.258
H 3.77685 3.00246 0 
1
timestep 0.259
H 3.77986 3.00247 0 
1
timestep 0.26
H 3.78287 3.00248 0 
1
timestep 0.261
H 3.78589 3.00249 0 
1
timestep 0.262
H 3.7889 3.0025 0 
1
timestep 0.263
H 3.79191 3.00251 0 
1
timestep 0.264
H 3.79492 3.00252 0 
1
timestep 0.265
H 3.79794 3.00253 0 
1
timestep 0.266
H 3.80095 3.00254 0 
1
timestep 0.267
H 3.80396 3.00255 0 
1
timestep 0.268
H 3.80697 3.00256 0 
1
timestep 0.269
H 3.80999 3.00258 0 
1
timestep 0.27
H 3.813 3.00259 0 
1
timestep 0.271
H 3.81601 3.0026 0 
1
timestep 0.272
H 3.81902 3.00261 0 
1
timestep 0.273
H 3.82204 3.00262 0 
1
timestep 0.274
H 3.82505 3.00263 0 
1
timestep 0.275
H 3.82806 3.00264 0 
1
timestep 0.276
H 3.83107 3.00265 0 
1
timestep 0.277
H 3.83409 3.00266 0 
1
timestep 0.278
H 3.8371 3.00267 0 
1
timestep 0.279
H 3.84011 3.00268 0 
1
timestep 0.28
H 3.84313 3.00269 0 
1
timestep 0.281
H 3.84614 3.00271 0 
1
timestep 0.282
H 3.84915 3.00272 0 
1
timestep 0.283
H 3.85216 3.00273 0 
1
timestep 0.284
H 3.85518 3.00274 0 
1
timestep 0.285
H 3.85819 3.00275 0 
1
timestep 0.286
H 3.8612 3.00276 0 
1
timestep 0.287
H 3.86421 3.00277 0 
1
timestep 0.288
H 3.86723 3.00278 0 
1
timestep 0.289
H 3.87024 3.00279 0 
1
timestep 0.29
H 3.87325 3.0028 0 
1
timestep 0.291
H 3.87626 3.00281 0 
1
timestep 0.292
H 3.87928 3.00282 0 
1
timestep 0.293
H 3.88229 3.00284 0 
1
timestep 0.294
H 3.8853 3.00285 0 
1
timestep 0.295
H 3.88831 3.00286 0 
1
timestep 0.296
H 3.89133 3.00287 0 
1
timestep 0.297
H 3.89434 3.00288 0 
1
timestep 0.298
H 3.89735 3.00289 0 
1
timestep 0.299
H 3.90036 3.0029 0 
1
timestep 0.3
H 3.90338 3.00291 0 
1
timestep 0.301
H 3.90639 3.00292 0 
1
timestep 0.302
H 3.9094 3.00293 0 
1
timestep 0.303
H 3.91242 3.00294 0 
1
timestep 0.304
H 3.91543 3.00296 0 
1
timestep 0.305
H 3.91844 3.00297 0 
1
timestep 0.306
H 3.92145 3.00298 0 
1
timestep 0.307
H 3.92447 3.00299 0 
1
timestep 0.308
H 3.92748 3.003 0 
1
timestep 0.309
H 3.93049 3.00301 0 
1
timestep 0.31
H 3.9335 3.00302 0 
1
timestep 0.311
H 3.93652 3.00303 0 
1
timestep 0.312
H 3.93953 3.00304 0 
1
timestep 0.313
H 3.94254 3.00305 0 
1
timestep 0.314
H 3.94555 3.00306 0 
1
timestep 0.315
H 3.94857 3.00307 0 
1
timestep 0.316
H 3.95158 3.00309 0 
1
timestep 0.317
H 3.95459 3.0031 0 
1
timestep 0.318
H 3.9576 3.00311 0 
1
timestep 0.319
H 3.96062 3.00312 0 
1
timestep 0.32
H 3.96363 3.00313 0 
1
timestep 0.321
H 3.96664 3.00314 0 
1
timestep 0.322
H 3.96965 3.00315 0 
1
timestep 0.323
H 3.97267 3.00316 0 
1
timestep 0.324
H 3.97568 3.00317 0 
1
timestep 0.325
H 3.97869 3.00318 0 
1
timestep 0.326
H 3.98171 3.00319 0 
1
timestep 0.327
H 3.98472 3.00321 0 
1
timestep 0.328
H 3.98773 3.00322 0 
1
timestep 0.329
H 3.99074 3.00323 0 
1
timestep 0.33
H 3.99376 3.00324 0 
1
timestep 0.331
H 3.99677 3.00325 0 
1
timestep 0.332
H 3.99978 3.00326 0 
1
timestep 0.333
H 4.00279 3.00327 0 
1
timestep 0.334
H 4.00581 3.00328 0 
1
timestep 0.335
H 4.00882 3.00329 0 
1
timestep 0.336
H 4.01183 3.0033 0 
1
timestep 0.337
H 4.01484 3.00331 0 
1
timestep 0.338
H 4.01786 3.00332 0 
1
timestep 0.339
H 4.02087 3.00334 0 
1
timestep 0.34
H 4.02388 3.00335 0 
1
timestep 0.341
H 4.02689 3.00336 0 
1
timestep 0.342
H 4.02991 3.00337 0 
1
timestep 0.343
H 4.03292 3.00338 0 
1
timestep 0.344
H 4.03593 3.00339 0 
1
timestep 0.345
H 4.03894 3.0034 0 
1
timestep 0.346
H 4.04196 3.00341 0 
1
timestep 0.347
H 4.04497 3.00342 0 
1
timestep 0.348
H 4.04798 3.00343 0 
1
timestep 0.349
H 4.05099 3.00344 0 
1
timestep 0.35
H 4.05401 3.00346 0 
1
timestep 0.351
H 4.05702 3.00347 0 
1
timestep 0.352
H 4.06003 3.00348 0 
1
timestep 0.353
H 4.06305 3.00349 0 
1
timestep 0.354
H 4.06606 3.0035 0 
1
timestep 0.355
H 4.06907 3.00351 0 
1
timestep 0.356
H 4.07208 3.00352 0 
1
timestep 0.357
H 4.0751 3.00353 0 
1
timestep 0.358
H 4.07811 3.00354 0 
1
timestep 0.359
H 4.08112 3.00355 0 
1
timestep 0.36
H 4.08413 3.00356 0 
1
timestep 0.361
H 4.08715 3.00357 0 
1
timestep 0.362
H 4.09016 3.00359 0 
1
timestep 0.363
H 4.09317 3.0036 0 
1
timestep 0.364
H 4.09618 3.00361 0 
1
timestep 0.365
H 4.0992 3.00362 0 
1
timestep 0.366
H 4.10221 3.00363 0 
1
timestep 0.367
H 4.10522 3.00364 0 
1
timestep 0.368
H 4.10823 3.00365 0 
1
timestep 0.369
H 4.11125 3.00366 0 
1
timestep 0.37
H 4.11426 3.00367 0 
1
timestep 0.371
H 4.11727 3.00368 0 
1
timestep 0.372
H 4.12028 3.00369 0 
1
timestep 0.373
H 4.1233 3.00371 0 
1
timestep 0.374
H 4.12631 3.00372 0 
1
timestep 0.375
H 4.12932 3.00373 0 
1
timestep 0.376
H 4.13234 3.00374 0 
1
timestep 0.377
H 4.13535 3.00375 0 
1
timestep 0.378
H 4.13836 3.00376 0 
1
timestep 0.379
H 4.14137 3.00377 0 
1
timestep 0.38
H 4.14439 3.00378 0 
1
timestep 0.381
H 4.1474 3.00379 0 
1
timestep 0.382
H 4.15041 3.0038 0 
1
timestep 0.383
H 4.15342 3.00381 0 
1
timestep 0.384
H 4.15644 3.00382 0 
1
timestep 0.385
H 4.15945 3.00384 0 
1
timestep 0.386
H 4.16246 3.00385 0 
1
timestep 0.387
H 4.16547 3.00386 0 
1
timestep 0.388
H 4.16849 3.00387 0 
1
timestep 0.389
H 4.1715 3.00388 0 
1
timestep 0.39
H 4.17451 3.00389 0 
1
timestep 0.391
H 4.17752 3.0039 0 
1
timestep 0.392
H 4.18054 3.00391 0 
1
timestep 0.393
H 4.18355 3.00392 0 
1
timestep 0.394
H 4.18656 3.00393 0 
1
timestep 0.395
H 4.18957 3.00394 0 
1
timestep 0.396
H 4.19259 3.00395 0 
1
timestep 0.397
H 4.1956 3.00397 0 
1
timestep 0.398
H 4.19861 3.00398 0 
1
timestep 0.399
H 4.20162 3.00399 0 
1
timestep 0.4
H 4.20464 3.004 0 
1
timestep 0.401
H 4.20765 3.00401 0 
1
timestep 0.402
H 4.21066 3.00402 0 
1
timestep 0.403
H 4.21368 3.00403 0 
1
timestep 0.404
H 4.21669 3.00404 0 
1
timestep 0.405
H 4.2197 3.00405 0 
1
timestep 0.406
H 4.22271 3.00406 0 
1
timestep 0.407
H 4.22573 3.00407 0 
1
timestep 0.408
H 4.22874 3.00409 0 
1
timestep 0.409
H 4.23175 3.0041 0 
1
timestep 0.41
H 4.23476 3.00411 0 
1
timestep 0.411
H 4.23778 3.00412 0 
1
timestep 0.412
H 4.24079 3.00413 0 
1
timestep 0.413
H 4.2438 3.00414 0 
1
timestep 0.414
H 4.24681 3.00415 0 
1
timestep 0.415
H 4.24983 3.00416 0 
1
timestep 0.416
H 4.25284 3.00417 0 
1
timestep 0.417
H 4.25585 3.00418 0 
1
timestep 0.418
H 4.25886 3.00419 0 
1
timestep 0.419
H 4.26188 3.0042 0 
1
timestep 0.42
H 4.26489 3.00422 0 
1
timestep 0.421
H 4.2679 3.00423 0 
1
timestep 0.422
H 4.27091 3.00424 0 
1
timestep 0.423
H 4.27393 3.00425 0 
1
timestep 0.424
H 4.27694 3.00426 0 
1
timestep 0.425
H 4.27995 3.00427 0 
1
timestep 0.426
H 4.28297 3.00428 0 
1
timestep 0.427
H 4.28598 3.00429 0 
1
timestep 0.428
H 4.28899 3.0043 0 
1
timestep 0.429
H 4.292 3.00431 0 
1
timestep 0.43
H 4.29502 3.00432 0 
1
timestep 0.431
H 4.29803 3.00434 0 
1
timestep 0.432
H 4.30104 3.00435 0 
1
timestep 0.433
H 4.30405 3.00436 0 
1
timestep 0.434
H 4.30707 3.00437 0 
1
timestep 0.435
H 4.31008 3.00438 0 
1
timestep 0.436
H 4.31309 3.00439 0 
1
timestep 0.437
H 4.3161 3.0044 0 
1
timestep 0.438
H 4.31912 3.00441 0 
1
timestep 0.439
H 4.32213 3.00442 0 
1
timestep 0.44
H 4.32514 3.00443 0 
1
timestep 0.441
H 4.32815 3.00444 0 
1
timestep 0.442
H 4.33117 3.00445 0 
1
timestep 0.443
H 4.33418 3.00447 0 
1
timestep 0.444
H 4.33719 3.00448 0 
1
timestep 0.445
H 4.3402 3.00449 0 
1
timestep 0.446
H 4.34322 3.0045 0 
1
timestep 0.447
H 4.34623 3.00451 0 
1
timestep 0.448
H 4.34924 3.00452 0 
1
timestep 0.449
H 4.35226 3.00453 0 
1
timestep 0.45
H 4.35527 3.00454 0 
1
timestep 0.451
H 4.35828 3.00455 0 
1
timestep 0.452
H 4.36129 3.00456 0 
1
timestep 0.453
H 4.36431 3.00457 0 
1
timestep 0.454
H 4.36732 3.00459 0 
1
timestep 0.455
H 4.37033 3.0046 0 
1
timestep 0.456
H 4.37334 3.00461 0 
1
timestep 0.457
H 4.37636 3.00462 0 
1
timestep 0.458
H 4.37937 3.00463 0 
1
timestep 0.459
H 4.38238 3.00464 0 
1
timestep 0.46
H 4.38539 3.00465 0 
1
timestep 0.461
H 4.38841 3.00466 0 
1
timestep 0.462
H 4.39142 3.00467 0 
1
timestep 0.463
H 4.39443 3.00468 0 
1
timestep 0.464
H 4.39744 3.00469 0 
1
timestep 0.465
H 4.40046 3.0047 0 
1
timestep 0.466
H 4.40347 3.00472 0 
1
timestep 0.467
H 4.40648 3.00473 0 
1
timestep 0.468
H 4.40949 3.00474 0 
1
timestep 0.469
H 4.41251 3.00475 0 
1
timestep 0.47
H 4.41552 3.00476 0 
1
timestep 0.471
H 4.41853 3.00477 0 
1
timestep 0.472
H 4.42154 3.00478 0 
1
timestep 0.473
H 4.42456 3.00479 0 
1
timestep 0.474
H 4.42757 3.0048 0 
1
timestep 0.475
H 4.43058 3.00481 0 
1
timestep 0.476
H 4.4336 3.00482 0 
1
timestep 0.477
H 4.43661 3.00483 0 
1
timestep 0.478
H 4.43962 3.00485 0 
1
timestep 0.479
H 4.44263 3.00486 0 
1
timestep 0.48
H 4.44565 3.00487 0 
1
timestep 0.481
H 4.44866 3.00488 0 
1
timestep 0.482
H 4.45167 3.00489 0 
1
timestep 0.483
H 4.45468 3.0049 0 
1
timestep 0.484
H 4.4577 3.00491 0 
1
timestep 0.485
H 4.46071 3.00492 0 
1
timestep 0.486
H 4.46372 3.00493 0 
1
timestep 0.487
H 4.46673 3.00494 0 
1
timestep 0.488
H 4.46975 3.00495 0 
1
timestep 0.489
H 4.47276 3.00497 0 
1
timestep 0.49
H 4.47577 3.00498 0 
1
timestep 0.491
H 4.47878 3.00499 0 
1
timestep 0.492
H 4.4818 3.005 0 
1
timestep 0.493
H 4.48481 3.00501 0 
1
timestep 0.494
H 4.48782 3.00502 0 
1
timestep 0.495
H 4.49083 3.00503 0 
1
timestep 0.496
H 4.49385 3.00504 0 
1
timestep 0.497
H 4.49686 3.00505 0 
1
timestep 0.498
H 4.49987 3.00506 0 
1
timestep 0.499
H 4.50289 3.00507 0 
1
timestep 0.5
H 4.5059 3.00508 0 
1
timestep 0.501
H 4.50891 3.0051 0 
1
timestep 0.502
H 4.51192 3.00511 0 
1
timestep 0.503
H 4.51494 3.00512 0 
1
timestep 0.504
H 4.51795 3.00513 0 
1
timestep 0.505
H 4.52096 3.00514 0 
1
timestep 0.506
H 4.52397 3.00515 0 
1
timestep 0.507
H 4.52699 3.00516 0 
1
timestep 0.508
H 4.53 3.00517 0 
1
timestep 0.509
H 4.53301 3.00518 0 
1
timestep 0.51
H 4.53602 3.00519 0 
1
timestep 0.511
H 4.53904 3.0052 0 
1
timestep 0.512
H 4.54205 3.00522 0 
1
timestep 0.513
H 4.54506 3.00523 0 
1
timestep 0.514
H 4.54807 3.00524 0 
1
timestep 0.515
H 4.55109 3.00525 0 
1
timestep 0.516
H 4.5541 3.00526 0 
1
timestep 0.517
H 4.55711 3.00527 0 
1
timestep 0.518
H 4.56012 3.00528 0 
1
timestep 0.519
H 4.56314 3.00529 0 
1
timestep 0.52
H 4.56615 3.0053 0 
1
timestep 0.521
H 4.56916 3.00531 0 
1
timestep 0.522
H 4.57217 3.00532 0 
1
timestep 0.523
H 4.57519 3.00533 0 
1
timestep 0.524
H 4.5782 3.00535 0 
1
timestep 0.525
H 4.58121 3.00536 0 
1
timestep 0.526
H 4.58423 3.00537 0 
1
timestep 0.527
H 4.58724 3.00538 0 
1
timestep 0.528
H 4.59025 3.00539 0 
1
timestep 0.529
H 4.59326 3.0054 0 
1
timestep 0.53
H 4.59628 3.00541 0 
1
timestep 0.531
H 4.59929 3.00542 0 
1
timestep 0.532
H 4.6023 3.00543 0 
1
timestep 0.533
H 4.60531 3.00544 0 
1
timestep 0.534
H 4.60833 3.00545 0 
1
timestep 0.535
H 4.61134 3.00547 0 
1
timestep 0.536
H 4.61435 3.00548 0 
1
timestep 0.537
H 4.61736 3.00549 0 
1
timestep 0.538
H 4.62038 3.0055 0 
1
timestep 0.539
H 4.62339 3.00551 0 
1
timestep 0.54
H 4.6264 3.00552 0 
1
timestep 0.541
H 4.62941 3.00553 0 
1
timestep 0.542
H 4.63243 3.00554 0 
1
timestep 0.543
H 4.63544 3.00555 0 
1
timestep 0.544
H 4.63845 3.00556 0 
1
timestep 0.545
H 4.64146 3.00557 0 
1
timestep 0.546
H 4.64448 3.00558 0 
1
timestep 0.547
H 4.64749 3.0056 0 
1
timestep 0.548
H 4.6505 3.00561 0 
1
timestep 0.549
H 4.65352 3.00562 0 
1
timestep 0.55
H 4.65653 3.00563 0 
1
timestep 0.551
H 4.65954 3.00564 0 
1
timestep 0.552
H 4.66255 3.00565 0 
1
timestep 0.553
H 4.66557 3.00566 0 
1
timestep 0.554
H 4.66858 3.00567 0 
1
timestep 0.555
H 4.67159 3.00568 0 
1
timestep 0.556
H 4.6746 3.00569 0 
1
timestep 0.557
H 4.67762 3.0057 0 
1
timestep 0.558
H 4.68063 3.00571 0 
1
timestep 0.559
H 4.68364 3.00573 0 
1
timestep 0.56
H 4.68665 3.00574 0 
1
timestep 0.561
H 4.68967 3.00575 0 
1
timestep 0.562
H 4.69268 3.00576 0 
1
timestep 0.563
H 4.69569 3.00577 0 
1
timestep 0.564
H 4.6987 3.00578 0 
1
timestep 0.565
H 4.70172 3.00579 0 
1
timestep 0.566
H 4.70473 3.0058 0 
1
timestep 0.567
H 4.70774 3.00581 0 
1
timestep 0.568
H 4.71075 3.00582 0 
1
timestep 0.569
H 4.71377 3.00583 0 
1
timestep 0.57
H 4.71678 3.00585 0 
1
timestep 0.571
H 4.71979 3.00586 0 
1
timestep 0.572
H 4.7228 3.00587 0 
1
timestep 0.573
H 4.72582 3.00588 0 
1
timestep 0.574
H 4.72883 3.00589 0 
1
timestep 0.575
H 4.73184 3.0059 0 
1
timestep 0.576
H 4.73486 3.00591 0 
1
timestep 0.577
H 4.73787 3.00592 0 
1
timestep 0.578
H 4.74088 3.00593 0 
1
timestep 0.579
H 4.74389 3.00594 0 
1
timestep 0.58
H 4.74691 3.00595 0 
1
timestep 0.581
H 4.74992 3.00596 0 
1
timestep 0.582
H 4.75293 3.00598 0 
1
timestep 0.583
H 4.75594 3.00599 0 
1
timestep 0.584
H 4.75896 3.006 0 
1
timestep 0.585
H 4.76197 3.00601 0 
1
timestep 0.586
H 4.76498 3.00602 0 
1
timestep 0.587
H 4.76799 3.00603 0 
1
timestep 0.588
H 4.77101 3.00604 0 
1
timestep 0.589
H 4.77402 3.00605 0 
1
timestep 0.59
H 4.77703 3.00606 0 
1
timestep 0.591
H 4.78004 3.00607 0 
1
timestep 0.592
H 4.78306 3.00608 0 
1
timestep 0.593
H 4.78607 3.0061 0 
1
timestep 0.594
H 4.78908 3.00611 0 
1
timestep 0.595
H 4.79209 3.00612 0 
1
timestep 0.596
H 4.79511 3.00613 0 
1
timestep 0.597
H 4.79812 3.00614 0 
1
timestep 0.598
H 4.80113 3.00615 0 
1
timestep 0.599
H 4.80415 3.00616 0 
1
timestep 0.6
H 4.80716 3.00617 0 
1
timestep 0.601
H 4.81017 3.00618 0 
1
timestep 0.602
H 4.81318 3.00619 0 
1
timestep 0.603
H 4.8162 3.0062 0 
1
timestep 0.604
H 4.81921 3.00621 0 
1
timestep 0.605
H 4.82222 3.00623 0 
1
timestep 0.606
H 4.82523 3.00624 0 
1
timestep 0.607
H 4.82825 3.00625 0 
1
timestep 0.608
H 4.83126 3.00626 0 
1
timestep 0.609
H 4.83427 3.00627 0 
1
timestep 0.61
H 4.83728 3.00628 0 
1
timestep 0.611
H 4.8403 3.00629 0 
1
timestep 0.612
H 4.84331 3.0063 0 
1
timestep 0.613
H 4.84632 3.00631 0 
1
timestep 0.614
H 4.84933 3.00632 0 
1
timestep 0.615
H 4.85235 3.00633 0 
1
timestep 0.616
H 4.85536 3.00635 0 
1
timestep 0.617
H 4.85837 3.00636 0 
1
timestep 0.618
H 4.86138 3.00637 0 
1
timestep 0.619
H 4.8644 3.00638 0 
1
timestep 0.62
H 4.86741 3.00639 0 
1
timestep 0.621
H 4.87042 3.0064 0 
1
timestep 0.622
H 4.87344 3.00641 0 
1
timestep 0.623
H 4.87645 3.00642 0 
1
timestep 0.624
H 4.87946 3.00643 0 
1
timestep 0.625
H 4.88247 3.00644 0 
1
timestep 0.626
H 4.88549 3.00645 0 
1
timestep 0.627
H 4.8885 3.00646 0 
1
timestep 0.628
H 4.89151 3.00648 0 
1
timestep 0.629
H 4.89452 3.00649 0 
1
timestep 0.63
H 4.89754 3.0065 0 
1
timestep 0.631
H 4.90055 3.00651 0 
1
timestep 0.632
H 4.90356 3.00652 0 
1
timestep 0.633
H 4.90657 3.00653 0 
1
timestep 0.634
H 4.90959 3.00654 0 
1
timestep 0.635
H 4.9126 3.00655 0 
1
timestep 0.636
H 4.91561 3.00656 0 
1
timestep 0.637
H 4.91862 3.00657 0 
1
timestep 0.638
H 4.92164 3.00658 0 
1
timestep 0.639
H 4.92465 3.00659 0 
1
timestep 0.64
H 4.92766 3.00661 0 
1
timestep 0.641
H 4.93067 3.00662 0 
1
timestep 0.642
H 4.93369 3.00663 0 
1
timestep 0.643
H 4.9367 3.00664 0 
1
timestep 0.644
H 4.93971 3.00665 0 
1
timestep 0.645
H 4.94272 3.00666 0 
1
timestep 0.646
H 4.94574 3.00667 0 
1
timestep 0.647
H 4.94875 3.00668 0 
1
timestep 0.648
H 4.95176 3.00669 0 
1
timestep 0.649
H 4.95478 3.0067 0 
1
timestep 0.65
H 4.95779 3.00671 0 
1
timestep 0.651
H 4.9608 3.00673 0 
1
timestep 0.652
H 4.96381 3.00674 0 
1
timestep 0.653
H 4.96683 3.00675 0 
1
timestep 0.654
H 4.96984 3.00676 0 
1
timestep 0.655
H 4.97285 3.00677 0 
1
timestep 0.656
H 4.97586 3.00678 0 
1
timestep 0.657
H 4.97888 3.00679 0 
1
timestep 0.658
H 4.98189 3.0068 0 
1
timestep 0.659
H 4.9849 3.00681 0 
1
timestep 0.66
H 4.98791 3.00682 0 
1
timestep 0.661
H 4.99093 3.00683 0 
1
timestep 0.662
H 4.99394 3.00684 0 
1
timestep 0.663
H 4.99695 3.00686 0 
1
timestep 0.664
H 4.99996 3.00687 0 
1
timestep 0.665
H 5.00298 3.00688 0 
1
timestep 0.666
H 5.00599 3.00689 0 
1
timestep 0.667
H 5.009 3.0069 0 
1
timestep 0.668
H 5.01201 3.00691 0 
1
timestep 0.669
H 5.01503 3.00692 0 
1
timestep 0.67
H 5.01804 3.00693 0 
1
timestep 0.671
H 5.02105 3.00694 0 
1
timestep 0.672
H 5.02407 3.00695 0 
1
timestep 0.673
H 5.02708 3.00696 0 
1
timestep 0.674
H 5.03009 3.00698 0 
1
timestep 0.675
H 5.0331 3.00699 0 
1
timestep 0.676
H 5.03612 3.007 0 
1
timestep 0.677
H 5.03913 3.00701 0 
1
timestep 0.678
H 5.04214 3.00702 0 
1
timestep 0.679
H 5.04515 3.00703 0 
1
timestep 0.68
H 5.04817 3.00704 0 
1
timestep 0.681
H 5.05118 3.00705 0 
1
timestep 0.682
H 5.05419 3.00706 0 
1
timestep 0.683
H 5.0572 3.00707 0 
1
timestep 0.684
H 5.06022 3.00708 0 
1
timestep 0.685
H 5.06323 3.00709 0 
1
timestep 0.686
H 5.06624 3.00711 0 
1
timestep 0.687
H 5.06925 3.00712 0 
1
timestep 0.688
H 5.07227 3.00713 0 
1
timestep 0.689
H 5.07528 3.00714 0 
1
timestep 0.69
H 5.07829 3.00715 0 
1
timestep 0.691
H 5.0813 3.00716 0 
1
timestep 0.692
H 5.08432 3.00717 0 
1
timestep 0.693
H 5.08733 3.00718 0 
1
timestep 0.694
H 5.09034 3.00719 0 
1
timestep 0.695
H 5.09335 3.0072 0 
1
timestep 0.696
H 5.09637 3.00721 0 
1
timestep 0.697
H 5.09938 3.00723 0 
1
timestep 0.698
H 5.10239 3.00724 0 
1
timestep 0.699
H 5.10541 3.00725 0 
1
timestep 0.7
H 5.10842 3.00726 0 
1
timestep 0.701
H 5.11143 3.00727 0 
1
timestep 0.702
H 5.11444 3.00728 0 
1
timestep 0.703
H 5.11746 3.00729 0 
1
timestep 0.704
H 5.12047 3.0073 0 
1
timestep 0.705
H 5.12348 3.00731 0 
1
timestep 0.706
H 5.12649 3.00732 0 
1
timestep 0.707
H 5.12951 3.00733 0 
1
timestep 0.708
H 5.13252 3.00734 0 
1
timestep 0.709
H 5.13553 3.00736 0 
1
timestep 0.71
H 5.13854 3.00737 0 
1
timestep 0.711
H 5.14156 3.00738 0 
1
timestep 0.712
H 5.14457 3.00739 0 
1
timestep 0.713
H 5.14758 3.0074 0 
1
timestep 0.714
H 5.15059 3.00741 0 
1
timestep 0.715
H 5.15361 3.00742 0 
1
timestep 0.716
H 5.15662 3.00743 0 
1
timestep 0.717
H 5.15963 3.00744 0 
1
timestep 0.718
H 5.16264 3.00745 0 
1
timestep 0.719
H 5.16566 3.00746 0 
1
timestep 0.72
H 5.16867 3.00747 0 
1
timestep 0.721
H 5.17168 3.00749 0 
1
timestep 0.722
H 5.1747 3.0075 0 
1
timestep 0.723
H 5.17771 3.00751 0 
1
timestep 0.724
H 5.18072 3.00752 0 
1
timestep 0.725
H 5.18373 3.00753 0 
1
timestep 0.726
H 5.18675 3.00754 0 
1
timestep 0.727
H 5.18976 3.00755 0 
1
timestep 0.728
H 5.19277 3.00756 0 
1
timestep 0.729
H 5.19578 3.00757 0 
1
timestep 0.73
H 5.1988 3.00758 0 
1
timestep 0.731
H 5.20181 3.00759 0 
1
timestep 0.732
H 5.20482 3.00761 0 
1
timestep 0.733
H 5.20783 3.00762 0 
1
timestep 0.734
H 5.21085 3.00763 0 
1
timestep 0.735
H 5.21386 3.00764 0 
1
timestep 0.736
H 5.21687 3.00765 0 
1
timestep 0.737
H 5.21988 3.00766 0 
1
timestep 0.738
H 5.2229 3.00767 0 
1
timestep 0.739
H 5.22591 3.00768 0 
1
timestep 0.74
H 5.22892 3.00769 0 
1
timestep 0.741
H 5.23193 3.0077 0 
1
timestep 0.742
H 5.23495 3.00771 0 
1
timestep 0.743
H 5.23796 3.00772 0 
1
timestep 0.744
H 5.24097 3.00774 0 
1
timestep 0.745
H 5.24399 3.00775 0 
1
timestep 0.746
H 5.247 3.00776 0 
1
timestep 0.747
H 5.25001 3.00777 0 
1
timestep 0.748
H 5.25302 3.00778 0 
1
timestep 0.749
H 5.25604 3.00779 0 
1
timestep 0.75
H 5.25905 3.0078 0 
1
timestep 0.751
H 5.26206 3.00781 0 
1
timestep 0.752
H 5.26507 3.00782 0 
1
timestep 0.753
H 5.26809 3.00783 0 
1
timestep 0.754
H 5.2711 3.00784 0 
1
timestep 0.755
H 5.27411 3.00786 0 
1
timestep 0.756
H 5.27712 3.00787 0 
1
timestep 0.757
H 5.28014 3.00788 0 
1
timestep 0.758
H 5.28315 3.00789 0 
1
timestep 0.759
H 5.28616 3.0079 0 
1
timestep 0.76