2
timestep 0.01
H 5 5.00001 5 
H 4.1 6.69999 5.5 
2
timestep 0.02
H 4.99998 5.00003 5.00001 
H 4.10002 6.69997 5.49999 
2
timestep 0.03
H 4.99996 5.00007 5.00002 
H 4.10004 6.69993 5.49998 
2
timestep 0.04
H 4.99993 5.00013 5.00004 
H 4.10007 6.69987 5.49996 
2
timestep 0.05
H 4.99989 5.0002 5.00006 
H 4.10011 6.6998 5.49994 
2
timestep 0.06
H 4.99985 5.00029 5.00009 
H 4.10015 6.69971 5.49991 
2
timestep 0.07
H 4.99979 5.0004 5.00012 
H 4.10021 6.6996 5.49988 
2
timestep 0.08
H 4.99973 5.00052 5.00015 
H 4.10027 6.69948 5.49985 
2
timestep 0.09
H 4.99965 5.00066 5.00019 
H 4.10035 6.69934 5.49981 
2
timestep 0.1
H 4.99957 5.00081 5.00024 
H 4.10043 6.69919 5.49976 
2
timestep 0.11
H 4.99948 5.00098 5.00029 
H 4.10052 6.69902 5.49971 
2
timestep 0.12
H 4.99938 5.00117 5.00034 
H 4.10062 6.69883 5.49966 
2
timestep 0.13
H 4.99927 5.00137 5.0004 
H 4.10073 6.69863 5.4996 
2
timestep 0.14
H 4.99916 5.00159 5.00047 
H 4.10084 6.69841 5.49953 
2
timestep 0.15
H 4.99903 5.00183 5.00054 
H 4.10097 6.69817 5.49946 
2
timestep 0.16
H 4.9989 5.00208 5.00061 
H 4.1011 6.69792 5.49939 
2
timestep 0.17
H 4.99876 5.00235 5.00069 
H 4.10124 6.69765 5.49931 
2
timestep 0.18
H 4.9986 5.00264 5.00078 
H 4.1014 6.69736 5.49922 
2
timestep 0.19
H 4.99844 5.00294 5.00086 
H 4.10156 6.69706 5.49914 
2
timestep 0.2
H 4.99828 5.00326 5.00096 
H 4.10172 6.69674 5.49904 
2
timestep 0.21
H 4.9981 5.00359 5.00106 
H 4.1019 6.69641 5.49894 
2
timestep 0.22
H 4.99791 5.00394 5.00116 
H 4.10209 6.69606 5.49884 
2
timestep 0.23
H 4.99772 5.00431 5.00127 
H 4.10228 6.69569 5.49873 
2
timestep 0.24
H 4.99751 5.0047 5.00138 
H 4.10249 6.6953 5.49862 
2
timestep 0.25
H 4.9973 5.0051 5.0015 
H 4.1027 6.6949 5.4985 
2
timestep 0.26
H 4.99708 5.00552 5.00162 
H 4.10292 6.69448 5.49838 
2
timestep 0.27
H 4.99685 5.00596 5.00175 
H 4.10315 6.69404 5.49825 
2
timestep 0.28
H 4.99661 5.00641 5.00189 
H 4.10339 6.69359 5.49811 
2
timestep 0.29
H 4.99636 5.00688 5.00202 
H 4.10364 6.69312 5.49798 
2
timestep 0.3
H 4.9961 5.00737 5.00217 
H 4.1039 6.69263 5.49783 
2
timestep 0.31
H 4.99583 5.00787 5.00232 
H 4.10417 6.69213 5.49768 
2
timestep 0.32
H 4.99555 5.0084 5.00247 
H 4.10445 6.6916 5.49753 
2
timestep 0.33
H 4.99527 5.00894 5.00263 
H 4.10473 6.69106 5.49737 
2
timestep 0.34
H 4.99497 5.00949 5.00279 
H 4.10503 6.69051 5.49721 
2
timestep 0.35
H 4.99467 5.01007 5.00296 
H 4.10533 6.68993 5.49704 
2
timestep 0.36
H 4.99436 5.01066 5.00313 
H 4.10564 6.68934 5.49687 
2
timestep 0.37
H 4.99403 5.01127 5.00331 
H 4.10597 6.68873 5.49669 
2
timestep 0.38
H 4.9937 5.0119 5.0035 
H 4.1063 6.6881 5.4965 
2
timestep 0.39
H 4.99336 5.01254 5.00369 
H 4.10664 6.68746 5.49631 
2
timestep 0.4
H 4.99301 5.0132 5.00388 
H 4.10699 6.6868 5.49612 
2
timestep 0.41
H 4.99265 5.01389 5.00408 
H 4.10735 6.68611 5.49592 
2
timestep 0.42
H 4.99228 5.01458 5.00429 
H 4.10772 6.68542 5.49571 
2
timestep 0.43
H 4.9919 5.0153 5.0045 
H 4.1081 6.6847 5.4955 
2
timestep 0.44
H 4.99151 5.01604 5.00472 
H 4.10849 6.68396 5.49528 
2
timestep 0.45
H 4.99111 5.01679 5.00494 
H 4.10889 6.68321 5.49506 
2
timestep 0.46
H 4.9907 5.01757 5.00517 
H 4.1093 6.68243 5.49483 
2
timestep 0.47
H 4.99028 5.01836 5.0054 
H 4.10972 6.68164 5.4946 
2
timestep 0.48
H 4.98985 5.01917 5.00564 
H 4.11015 6.68083 5.49436 
2
timestep 0.49
H 4.98941 5.02 5.00588 
H 4.11059 6.68 5.49412 
2
timestep 0.5
H 4.98896 5.02084 5.00613 
H 4.11104 6.67916 5.49387 
2
timestep 0.51
H 4.98851 5.02171 5.00639 
H 4.11149 6.67829 5.49361 
2
timestep 0.52
H 4.98804 5.0226 5.00665 
H 4.11196 6.6774 5.49335 
2
timestep 0.53
H 4.98756 5.02351 5.00691 
H 4.11244 6.67649 5.49309 
2
timestep 0.54
H 4.98707 5.02443 5.00719 
H 4.11293 6.67557 5.49281 
2
timestep 0.55
H 4.98656 5.02538 5.00746 
H 4.11344 6.67462 5.49254 
2
timestep 0.56
H 4.98605 5.02634 5.00775 
H 4.11395 6.67366 5.49225 
2
timestep 0.57
H 4.98553 5.02733 5.00804 
H 4.11447 6.67267 5.49196 
2
timestep 0.58
H 4.985 5.02833 5.00833 
H 4.115 6.67167 5.49167 
2
timestep 0.59
H 4.98446 5.02936 5.00864 
H 4.11554 6.67064 5.49136 
2
timestep 0.6
H 4.9839 5.03041 5.00894 
H 4.1161 6.66959 5.49106 
2
timestep 0.61
H 4.98334 5.03148 5.00926 
H 4.11666 6.66852 5.49074 
2
timestep 0.62
H 4.98276 5.03256 5.00958 
H 4.11724 6.66744 5.49042 
2
timestep 0.63
H 4.98217 5.03367 5.0099 
H 4.11783 6.66633 5.4901 
2
timestep 0.64
H 4.98157 5.03481 5.01024 
H 4.11843 6.66519 5.48976 
2
timestep 0.65
H 4.98096 5.03596 5.01058 
H 4.11904 6.66404 5.48942 
2
timestep 0.66
H 4.98034 5.03713 5.01092 
H 4.11966 6.66287 5.48908 
2
timestep 0.67
H 4.97971 5.03833 5.01127 
H 4.12029 6.66167 5.48873 
2
timestep 0.68
H 4.97906 5.03955 5.01163 
H 4.12094 6.66045 5.48837 
2
timestep 0.69
H 4.97841 5.04079 5.012 
H 4.12159 6.65921 5.488 
2
timestep 0.7
H 4.97774 5.04205 5.01237 
H 4.12226 6.65795 5.48763 
2
timestep 0.71
H 4.97706 5.04334 5.01275 
H 4.12294 6.65666 5.48725 
2
timestep 0.72
H 4.97636 5.04465 5.01313 
H 4.12364 6.65535 5.48687 
2
timestep 0.73
H 4.97566 5.04598 5.01352 
H 4.12434 6.65402 5.48648 
2
timestep 0.74
H 4.97494 5.04734 5.01392 
H 4.12506 6.65266 5.48608 
2
timestep 0.75
H 4.97421 5.04872 5.01433 
H 4.12579 6.65128 5.48567 
2
timestep 0.76
H 4.97347 5.05012 5.01474 
H 4.12653 6.64988 5.48526 
2
timestep 0.77
H 4.97271 5.05155 5.01516 
H 4.12729 6.64845 5.48484 
2
timestep 0.78
H 4.97194 5.053 5.01559 
H 4.12806 6.647 5.48441 
2
timestep 0.79
H 4.97116 5.05448 5.01602 
H 4.12884 6.64552 5.48398 
2
timestep 0.8
H 4.97036 5.05599 5.01647 
H 4.12964 6.64401 5.48353 
2
timestep 0.81
H 4.96955 5.05752 5.01692 
H 4.13045 6.64248 5.48308 
2
timestep 0.82
H 4.96873 5.05907 5.01737 
H 4.13127 6.64093 5.48263 
2
timestep 0.83
H 4.96789 5.06065 5.01784 
H 4.13211 6.63935 5.48216 
2
timestep 0.84
H 4.96704 5.06226 5.01831 
H 4.13296 6.63774 5.48169 
2
timestep 0.85
H 4.96617 5.0639 5.01879 
H 4.13383 6.6361 5.48121 
2
timestep 0.86
H 4.96529 5.06556 5.01928 
H 4.13471 6.63444 5.48072 
2
timestep 0.87
H 4.9644 5.06725 5.01978 
H 4.1356 6.63275 5.48022 
2
timestep 0.88
H 4.96349 5.06897 5.02029 
H 4.13651 6.63103 5.47971 
2
timestep 0.89
H 4.96256 5.07072 5.0208 
H 4.13744 6.62928 5.4792 
2
timestep 0.9
H 4.96162 5.0725 5.02132 
H 4.13838 6.6275 5.47868 
2
timestep 0.91
H 4.96066 5.0743 5.02185 
H 4.13934 6.6257 5.47815 
2
timestep 0.92
H 4.95969 5.07614 5.02239 
H 4.14031 6.62386 5.47761 
2
timestep 0.93
H 4.9587 5.07801 5.02294 
H 4.1413 6.62199 5.47706 
2
timestep 0.94
H 4.9577 5.07991 5.0235 
H 4.1423 6.62009 5.4765 
2
timestep 0.95
H 4.95668 5.08184 5.02407 
H 4.14332 6.61816 5.47593 
2
timestep 0.96
H 4.95564 5.0838 5.02465 
H 4.14436 6.6162 5.47535 
2
timestep 0.97
H 4.95458 5.08579 5.02523 
H 4.14542 6.61421 5.47477 
2
timestep 0.98
H 4.95351 5.08782 5.02583 
H 4.14649 6.61218 5.47417 
2
timestep 0.99
H 4.95242 5.08988 5.02644 
H 4.14758 6.61012 5.47356 
2
timestep 1
H 4.95131 5.09198 5.02705 
H 4.14869 6.60802 5.47295 
2
timestep 1.01
H 4.95018 5.09411 5.02768 
H 4.14982 6.60589 5.47232 
2
timestep 1.02
H 4.94903 5.09627 5.02832 
H 4.15097 6.60373 5.47168 
2
timestep 1.03
H 4.94787 5.09847 5.02896 
H 4.15213 6.60153 5.47104 
2
timestep 1.04
H 4.94668 5.10071 5.02962 
H 4.15332 6.59929 5.47038 
2
timestep 1.05
H 4.94548 5.10299 5.03029 
H 4.15452 6.59701 5.46971 
2
timestep 1.06
H 4.94425 5.10531 5.03097 
H 4.15575 6.59469 5.46903 
2
timestep 1.07
H 4.943 5.10766 5.03166 
H 4.157 6.59234 5.46834 
2
timestep 1.08
H 4.94174 5.11006 5.03237 
H 4.15826 6.58994 5.46763 
2
timestep 1.09
H 4.94045 5.11249 5.03309 
H 4.15955 6.58751 5.46691 
2
timestep 1.1
H 4.93913 5.11497 5.03381 
H 4.16087 6.58503 5.46619 
2
timestep 1.11
H 4.9378 5.11749 5.03456 
H 4.1622 6.58251 5.46544 
2
timestep 1.12
H 4.93644 5.12005 5.03531 
H 4.16356 6.57995 5.46469 
2
timestep 1.13
H 4.93506 5.12266 5.03608 
H 4.16494 6.57734 5.46392 
2
timestep 1.14
H 4.93366 5.12532 5.03686 
H 4.16634 6.57468 5.46314 
2
timestep 1.15
H 4.93223 5.12802 5.03765 
H 4.16777 6.57198 5.46235 
2
timestep 1.16
H 4.93077 5.13077 5.03846 
H 4.16923 6.56923 5.46154 
2
timestep 1.17
H 4.92929 5.13357 5.03928 
H 4.17071 6.56643 5.46072 
2
timestep 1.18
H 4.92778 5.13642 5.04012 
H 4.17222 6.56358 5.45988 
2
timestep 1.19
H 4.92624 5.13932 5.04098 
H 4.17376 6.56068 5.45902 
2
timestep 1.2
H 4.92468 5.14227 5.04184 
H 4.17532 6.55773 5.45816 
2
timestep 1.21
H 4.92309 5.14528 5.04273 
H 4.17691 6.55472 5.45727 
2
timestep 1.22
H 4.92147 5.14834 5.04363 
H 4.17853 6.55166 5.45637 
2
timestep 1.23
H 4.91981 5.15146 5.04455 
H 4.18019 6.54854 5.45545 
2
timestep 1.24
H 4.91813 5.15465 5.04548 
H 4.18187 6.54535 5.45452 
2
timestep 1.25
H 4.91641 5.15789 5.04644 
H 4.18359 6.54211 5.45356 
2
timestep 1.26
H 4.91466 5.16119 5.04741 
H 4.18534 6.53881 5.45259 
2
timestep 1.27
H 4.91288 5.16456 5.0484 
H 4.18712 6.53544 5.4516 
2
timestep 1.28
H 4.91106 5.168 5.04941 
H 4.18894 6.532 5.45059 
2
timestep 1.29
H 4.9092 5.1715 5.05044 
H 4.1908 6.5285 5.44956 
2
timestep 1.3
H 4.90731 5.17508 5.05149 
H 4.19269 6.52492 5.44851 
2
timestep 1.31
H 4.90538 5.17873 5.05257 
H 4.19462 6.52127 5.44743 
2
timestep 1.32
H 4.90341 5.18246 5.05366 
H 4.19659 6.51754 5.44634 
2
timestep 1.33
H 4.90139 5.18626 5.05478 
H 4.19861 6.51374 5.44522 
2
timestep 1.34
H 4.89934 5.19014 5.05592 
H 4.20066 6.50986 5.44408 
2
timestep 1.35
H 4.89723 5.19411 5.05709 
H 4.20277 6.50589 5.44291 
2
timestep 1.36
H 4.89509 5.19817 5.05828 
H 4.20491 6.50183 5.44172 
2
timestep 1.37
H 4.89289 5.20231 5.0595 
H 4.20711 6.49769 5.4405 
2
timestep 1.38
H 4.89065 5.20655 5.06075 
H 4.20935 6.49345 5.43925 
2
timestep 1.39
H 4.88835 5.21089 5.06203 
H 4.21165 6.48911 5.43797 
2
timestep 1.4
H 4.886 5.21533 5.06333 
H 4.214 6.48467 5.43667 
2
timestep 1.41
H 4.8836 5.21987 5.06467 
H 4.2164 6.48013 5.43533 
2
timestep 1.42
H 4.88113 5.22453 5.06604 
H 4.21887 6.47547 5.43396 
2
timestep 1.43
H 4.87861 5.22929 5.06744 
H 4.22139 6.47071 5.43256 
2
timestep 1.44
H 4.87602 5.23418 5.06888 
H 4.22398 6.46582 5.43112 
2
timestep 1.45
H 4.87337 5.23919 5.07035 
H 4.22663 6.46081 5.42965 
2
timestep 1.46
H 4.87065 5.24433 5.07186 
H 4.22935 6.45567 5.42814 
2
timestep 1.47
H 4.86786 5.24961 5.07341 
H 4.23214 6.45039 5.42659 
2
timestep 1.48
H 4.86499 5.25502 5.07501 
H 4.23501 6.44498 5.42499 
2
timestep 1.49
H 4.86204 5.26058 5.07664 
H 4.23796 6.43942 5.42336 
2
timestep 1.5
H 4.85902 5.2663 5.07832 
H 4.24098 6.4337 5.42168 
2
timestep 1.51
H 4.8559 5.27218 5.08005 
H 4.2441 6.42782 5.41995 
2
timestep 1.52
H 4.8527 5.27823 5.08183 
H 4.2473 6.42177 5.41817 
2
timestep 1.53
H 4.84941 5.28445 5.08366 
H 4.25059 6.41555 5.41634 
2
timestep 1.54
H 4.84602 5.29085 5.08554 
H 4.25398 6.40915 5.41446 
2
timestep 1.55
H 4.84253 5.29744 5.08748 
H 4.25747 6.40256 5.41252 
2
timestep 1.56
H 4.83894 5.30423 5.08948 
H 4.26106 6.39577 5.41052 
2
timestep 1.57
H 4.83524 5.31121 5.09153 
H 4.26476 6.38879 5.40847 
2
timestep 1.58
H 4.83144 5.3184 5.09365 
H 4.26856 6.3816 5.40635 
2
timestep 1.59
H 4.82752 5.32579 5.09582 
H 4.27248 6.37421 5.40418 
2
timestep 1.6
H 4.8235 5.33339 5.09806 
H 4.2765 6.36661 5.40194 
2
timestep 1.61
H 4.81937 5.34118 5.10035 
H 4.28063 6.35882 5.39965 
2
timestep 1.62
H 4.81515 5.34915 5.10269 
H 4.28485 6.35085 5.39731 
2
timestep 1.63
H 4.81085 5.35728 5.10508 
H 4.28915 6.34272 5.39492 
2
timestep 1.64
H 4.80649 5.36551 5.1075 
H 4.29351 6.33449 5.3925 
2
timestep 1.65
H 4.80211 5.37379 5.10994 
H 4.29789 6.32621 5.39006 
2
timestep 1.66
H 4.79775 5.38202 5.11236 
H 4.30225 6.31798 5.38764 
2
timestep 1.67
H 4.79349 5.39007 5.11473 
H 4.30651 6.30993 5.38527 
2
timestep 1.68
H 4.78942 5.39776 5.11699 
H 4.31058 6.30224 5.38301 
2
timestep 1.69
H 4.78566 5.40486 5.11908 
H 4.31434 6.29514 5.38092 
2
timestep 1.7
H 4.78238 5.41106 5.1209 
H 4.31762 6.28894 5.3791 
2
timestep 1.71
H 4.77974 5.41604 5.12237 
H 4.32026 6.28396 5.37763 
2
timestep 1.72
H 4.77792 5.41949 5.12338 
H 4.32208 6.28051 5.37662 
2
timestep 1.73
H 4.77705 5.42112 5.12386 
H 4.32295 6.27888 5.37614 
2
timestep 1.74
H 4.77722 5.42081 5.12377 
H 4.32278 6.27919 5.37623 
2
timestep 1.75
H 4.7784 5.41858 5.12311 
H 4.3216 6.28142 5.37689 
2
timestep 1.76
H 4.7805 5.41461 5.12194 
H 4.3195 6.28539 5.37806 
2
timestep 1.77
H 4.78336 5.4092 5.12035 
H 4.31664 6.2908 5.37965 
2
timestep 1.78
H 4.78682 5.40268 5.11844 
H 4.31318 6.29732 5.38156 
2
timestep 1.79
H 4.79069 5.39537 5.11629 
H 4.30931 6.30463 5.38371 
2
timestep 1.8
H 4.79483 5.38754 5.11398 
H 4.30517 6.31246 5.38602 
2
timestep 1.81
H 4.79913 5.37942 5.11159 
H 4.30087 6.32058 5.38841 
2
timestep 1.82
H 4.80351 5.37116 5.10916 
H 4.29649 6.32884 5.39084 
2
timestep 1.83
H 4.80789 5.36288 5.10673 
H 4.29211 6.33712 5.39327 
2
timestep 1.84
H 4.81223 5.35468 5.10432 
H 4.28777 6.34532 5.39568 
2
timestep 1.85
H 4.81651 5.3466 5.10194 
H 4.28349 6.3534 5.39806 
2
timestep 1.86
H 4.8207 5.33868 5.09961 
H 4.2793 6.36132 5.40039 
2
timestep 1.87
H 4.82479 5.33095 5.09734 
H 4.27521 6.36905 5.40266 
2
timestep 1.88
H 4.82878 5.32342 5.09512 
H 4.27122 6.37658 5.40488 
2
timestep 1.89
H 4.83266 5.31609 5.09297 
H 4.26734 6.38391 5.40703 
2
timestep 1.9
H 4.83643 5.30897 5.09087 
H 4.26357 6.39103 5.40913 
2
timestep 1.91
H 4.84009 5.30205 5.08884 
H 4.25991 6.39795 5.41116 
2
timestep 1.92
H 4.84365 5.29532 5.08686 
H 4.25635 6.40468 5.41314 
2
timestep 1.93
H 4.84711 5.28879 5.08494 
H 4.25289 6.41121 5.41506 
2
timestep 1.94
H 4.85047 5.28245 5.08307 
H 4.24953 6.41755 5.41693 
2
timestep 1.95
H 4.85373 5.27628 5.08126 
H 4.24627 6.42372 5.41874 
2
timestep 1.96
H 4.8569 5.27029 5.0795 
H 4.2431 6.42971 5.4205 
2
timestep 1.97
H 4.85999 5.26447 5.07778 
H 4.24001 6.43553 5.42222 
2
timestep 1.98
H 4.86299 5.2588 5.07612 
H 4.23701 6.4412 5.42388 
2
timestep 1.99
H 4.86591 5.25328 5.07449 
H 4.23409 6.44672 5.42551 
2
timestep 2
H 4.86875 5.24791 5.07292 
H 4.23125 6.45209 5.42708 
2
timestep 2.01
H 4.87152 5.24268 5.07138 
H 4.22848 6.45732 5.42862 
2
timestep 2.02
H 4.87422 5.23758 5.06988 
H 4.22578 6.46242 5.43012 
2
timestep 2.03
H 4.87685 5.23261 5.06842 
H 4.22315 6.46739 5.43158 
2
timestep 2.04
H 4.87942 5.22776 5.06699 
H 4.22058 6.47224 5.43301 
2
timestep 2.05
H 4.88192 5.22303 5.0656 
H 4.21808 6.47697 5.4344 
2
timestep 2.06
H 4.88437 5.21842 5.06424 
H 4.21563 6.48158 5.43576 
2
timestep 2.07
H 4.88676 5.21391 5.06291 
H 4.21324 6.48609 5.43709 
2
timestep 2.08
H 4.88909 5.2095 5.06162 
H 4.21091 6.4905 5.43838 
2
timestep 2.09
H 4.89137 5.20519 5.06035 
H 4.20863 6.49481 5.43965 
2
timestep 2.1
H 4.8936 5.20098 5.05911 
H 4.2064 6.49902 5.44089 
2
timestep 2.11
H 4.89578 5.19687 5.0579 
H 4.20422 6.50313 5.4421 
2
timestep 2.12
H 4.89791 5.19284 5.05672 
H 4.20209 6.50716 5.44328 
2
timestep 2.13
H 4.9 5.1889 5.05556 
H 4.2 6.5111 5.44444 
2
timestep 2.14
H 4.90204 5.18504 5.05442 
H 4.19796 6.51496 5.44558 
2
timestep 2.15
H 4.90404 5.18126 5.05331 
H 4.19596 6.51874 5.44669 
2
timestep 2.16
H 4.906 5.17756 5.05222 
H 4.194 6.52244 5.44778 
2
timestep 2.17
H 4.90792 5.17393 5.05116 
H 4.19208 6.52607 5.44884 
2
timestep 2.18
H 4.9098 5.17038 5.05011 
H 4.1902 6.52962 5.44989 
2
timestep 2.19
H 4.91164 5.1669 5.04909 
H 4.18836 6.5331 5.45091 
2
timestep 2.2
H 4.91345 5.16348 5.04808 
H 4.18655 6.53652 5.45192 
2
timestep 2.21
H 4.91522 5.16013 5.0471 
H 4.18478 6.53987 5.4529 
2
timestep 2.22
H 4.91696 5.15685 5.04613 
H 4.18304 6.54315 5.45387 
2
timestep 2.23
H 4.91867 5.15363 5.04518 
H 4.18133 6.54637 5.45482 
2
timestep 2.24
H 4.92034 5.15047 5.04425 
H 4.17966 6.54953 5.45575 
2
timestep 2.25
H 4.92199 5.14736 5.04334 
H 4.17801 6.55264 5.45666 
2
timestep 2.26
H 4.9236 5.14432 5.04245 
H 4.1764 6.55568 5.45755 
2
timestep 2.27
H 4.92518 5.14132 5.04157 
H 4.17482 6.55868 5.45843 
2
timestep 2.28
H 4.92674 5.13839 5.0407 
H 4.17326 6.56161 5.4593 
2
timestep 2.29
H 4.92826 5.1355 5.03985 
H 4.17174 6.5645 5.46015 
2
timestep 2.3
H 4.92976 5.13267 5.03902 
H 4.17024 6.56733 5.46098 
2
timestep 2.31
H 4.93124 5.12989 5.0382 
H 4.16876 6.57011 5.4618 
2
timestep 2.32
H 4.93268 5.12715 5.0374 
H 4.16732 6.57285 5.4626 
2
timestep 2.33
H 4.93411 5.12447 5.03661 
H 4.16589 6.57553 5.46339 
2
timestep 2.34
H 4.9355 5.12183 5.03583 
H 4.1645 6.57817 5.46417 
2
timestep 2.35
H 4.93688 5.11923 5.03507 
H 4.16312 6.58077 5.46493 
2
timestep 2.36
H 4.93823 5.11668 5.03432 
H 4.16177 6.58332 5.46568 
2
timestep 2.37
H 4.93955 5.11418 5.03358 
H 4.16045 6.58582 5.46642 
2
timestep 2.38
H 4.94086 5.11171 5.03286 
H 4.15914 6.58829 5.46714 
2
timestep 2.39
H 4.94214 5.10929 5.03214 
H 4.15786 6.59071 5.46786 
2
timestep 2.4
H 4.9434 5.10691 5.03144 
H 4.1566 6.59309 5.46856 
2
timestep 2.41
H 4.94464 5.10457 5.03075 
H 4.15536 6.59543 5.46925 
2
timestep 2.42
H 4.94586 5.10226 5.03008 
H 4.15414 6.59774 5.46992 
2
timestep 2.43
H 4.94706 5.1 5.02941 
H 4.15294 6.6 5.47059 
2
timestep 2.44
H 4.94824 5.09777 5.02876 
H 4.15176 6.60223 5.47124 
2
timestep 2.45
H 4.9494 5.09558 5.02811 
H 4.1506 6.60442 5.47189 
2
timestep 2.46
H 4.95054 5.09342 5.02748 
H 4.14946 6.60658 5.47252 
2
timestep 2.47
H 4.95166 5.09131 5.02685 
H 4.14834 6.60869 5.47315 
2
timestep 2.48
H 4.95277 5.08922 5.02624 
H 4.14723 6.61078 5.47376 
2
timestep 2.49
H 4.95385 5.08717 5.02564 
H 4.14615 6.61283 5.47436 
2
timestep 2.5
H 4.95492 5.08515 5.02505 
H 4.14508 6.61485 5.47495 
2
timestep 2.51
H 4.95597 5.08317 5.02446 
H 4.14403 6.61683 5.47554 
2
timestep 2.52
H 4.957 5.08122 5.02389 
H 4.143 6.61878 5.47611 
2
timestep 2.53
H 4.95802 5.0793 5.02332 
H 4.14198 6.6207 5.47668 
2
timestep 2.54
H 4.95902 5.07741 5.02277 
H 4.14098 6.62259 5.47723 
2
timestep 2.55
H 4.96 5.07555 5.02222 
H 4.14 6.62445 5.47778 
2
timestep 2.56
H 4.96097 5.07373 5.02168 
H 4.13903 6.62627 5.47832 
2
timestep 2.57
H 4.96192 5.07193 5.02116 
H 4.13808 6.62807 5.47884 
2
timestep 2.58
H 4.96286 5.07016 5.02064 
H 4.13714 6.62984 5.47936 
2
timestep 2.59
H 4.96378 5.06842 5.02012 
H 4.13622 6.63158 5.47988 
2
timestep 2.6
H 4.96468 5.06671 5.01962 
H 4.13532 6.63329 5.48038 
2
timestep 2.61
H 4.96557 5.06503 5.01913 
H 4.13443 6.63497 5.48087 
2
timestep 2.62
H 4.96645 5.06337 5.01864 
H 4.13355 6.63663 5.48136 
2
timestep 2.63
H 4.96731 5.06175 5.01816 
H 4.13269 6.63825 5.48184 
2
timestep 2.64
H 4.96816 5.06015 5.01769 
H 4.13184 6.63985 5.48231 
2
timestep 2.65
H 4.96899 5.05857 5.01723 
H 4.13101 6.64143 5.48277 
2
timestep 2.66
H 4.96981 5.05703 5.01677 
H 4.13019 6.64297 5.48323 
2
timestep 2.67
H 4.97062 5.0555 5.01632 
H 4.12938 6.6445 5.48368 
2
timestep 2.68
H 4.97141 5.05401 5.01588 
H 4.12859 6.64599 5.48412 
2
timestep 2.69
H 4.97219 5.05254 5.01545 
H 4.12781 6.64746 5.48455 
2
timestep 2.7
H 4.97295 5.05109 5.01503 
H 4.12705 6.64891 5.48497 
2
timestep 2.71
H 4.9737 5.04967 5.01461 
H 4.1263 6.65033 5.48539 
2
timestep 2.72
H 4.97444 5.04827 5.0142 
H 4.12556 6.65173 5.4858 
2
timestep 2.73
H 4.97517 5.0469 5.01379 
H 4.12483 6.6531 5.48621 
2
timestep 2.74
H 4.97588 5.04555 5.0134 
H 4.12412 6.65445 5.4866 
2
timestep 2.75
H 4.97659 5.04423 5.01301 
H 4.12341 6.65577 5.48699 
2
timestep 2.76
H 4.97727 5.04293 5.01263 
H 4.12273 6.65707 5.48737 
2
timestep 2.77
H 4.97795 5.04165 5.01225 
H 4.12205 6.65835 5.48775 
2
timestep 2.78
H 4.97862 5.04039 5.01188 
H 4.12138 6.65961 5.48812 
2
timestep 2.79
H 4.97927 5.03916 5.01152 
H 4.12073 6.66084 5.48848 
2
timestep 2.8
H 4.97991 5.03795 5.01116 
H 4.12009 6.66205 5.48884 
2
timestep 2.81
H 4.98054 5.03676 5.01081 
H 4.11946 6.66324 5.48919 
2
timestep 2.82
H 4.98116 5.03559 5.01047 
H 4.11884 6.66441 5.48953 
2
timestep 2.83
H 4.98177 5.03444 5.01013 
H 4.11823 6.66556 5.48987 
2
timestep 2.84
H 4.98236 5.03332 5.0098 
H 4.11764 6.66668 5.4902 
2
timestep 2.85
H 4.98294 5.03222 5.00948 
H 4.11706 6.66778 5.49052 
2
timestep 2.86
H 4.98352 5.03113 5.00916 
H 4.11648 6.66887 5.49084 
2
timestep 2.87
H 4.98408 5.03007 5.00884 
H 4.11592 6.66993 5.49116 
2
timestep 2.88
H 4.98463 5.02903 5.00854 
H 4.11537 6.67097 5.49146 
2
timestep 2.89
H 4.98517 5.02801 5.00824 
H 4.11483 6.67199 5.49176 
2
timestep 2.9
H 4.9857 5.02701 5.00794 
H 4.1143 6.67299 5.49206 
2
timestep 2.91
H 4.98622 5.02603 5.00766 
H 4.11378 6.67397 5.49234 
2
timestep 2.92
H 4.98673 5.02507 5.00737 
H 4.11327 6.67493 5.49263 
2
timestep 2.93
H 4.98722 5.02413 5.0071 
H 4.11278 6.67587 5.4929 
2
timestep 2.94
H 4.98771 5.02322 5.00683 
H 4.11229 6.67678 5.49317 
2
timestep 2.95
H 4.98819 5.02231 5.00656 
H 4.11181 6.67769 5.49344 
2
timestep 2.96
H 4.98865 5.02143 5.0063 
H 4.11135 6.67857 5.4937 
2
timestep 2.97
H 4.98911 5.02057 5.00605 
H 4.11089 6.67943 5.49395 
2
timestep 2.98
H 4.98955 5.01973 5.0058 
H 4.11045 6.68027 5.4942 
2
timestep 2.99
H 4.98999 5.01891 5.00556 
H 4.11001 6.68109 5.49444 
2
timestep 3
H 4.99042 5.0181 5.00532 
H 4.10958 6.6819 5.49468 
2
timestep 3.01
H 4.99083 5.01732 5.00509 
H 4.10917 6.68268 5.49491 
2
timestep 3.02
H 4.99124 5.01655 5.00487 
H 4.10876 6.68345 5.49513 
2
timestep 3.03
H 4.99163 5.0158 5.00465 
H 4.10837 6.6842 5.49535 
2
timestep 3.04
H 4.99202 5.01507 5.00443 
H 4.10798 6.68493 5.49557 
2
timestep 3.05
H 4.9924 5.01436 5.00422 
H 4.1076 6.68564 5.49578 
2
timestep 3.06
H 4.99276 5.01367 5.00402 
H 4.10724 6.68633 5.49598 
2
timestep 3.07
H 4.99312 5.01299 5.00382 
H 4.10688 6.68701 5.49618 
2
timestep 3.08
H 4.99347 5.01233 5.00363 
H 4.10653 6.68767 5.49637 
2
timestep 3.09
H 4.99381 5.01169 5.00344 
H 4.10619 6.68831 5.49656 
2
timestep 3.1
H 4.99414 5.01107 5.00326 
H 4.10586 6.68893 5.49674 
2
timestep 3.11
H 4.99446 5.01047 5.00308 
H 4.10554 6.68953 5.49692 
2
timestep 3.12
H 4.99477 5.00988 5.00291 
H 4.10523 6.69012 5.49709 
2
timestep 3.13
H 4.99507 5.00931 5.00274 
H 4.10493 6.69069 5.49726 
2
timestep 3.14
H 4.99536 5.00876 5.00258 
H 4.10464 6.69124 5.49742 
2
timestep 3.15
H 4.99564 5.00823 5.00242 
H 4.10436 6.69177 5.49758 
2
timestep 3.16
H 4.99592 5.00771 5.00227 
H 4.10408 6.69229 5.49773 
2
timestep 3.17
H 4.99618 5.00721 5.00212 
H 4.10382 6.69279 5.49788 
2
timestep 3.18
H 4.99644 5.00673 5.00198 
H 4.10356 6.69327 5.49802 
2
timestep 3.19
H 4.99668 5.00627 5.00184 
H 4.10332 6.69373 5.49816 
2
timestep 3.2
H 4.99692 5.00582 5.00171 
H 4.10308 6.69418 5.49829 
2
timestep 3.21
H 4.99715 5.00539 5.00158 
H 4.10285 6.69461 5.49842 
2
timestep 3.22
H 4.99737 5.00497 5.00146 
H 4.10263 6.69503 5.49854 
2
timestep 3.23
H 4.99758 5.00458 5.00135 
H 4.10242 6.69542 5.49865 
2
timestep 3.24
H 4.99778 5.00419 5.00123 
H 4.10222 6.69581 5.49877 
2
timestep 3.25
H 4.99797 5.00383 5.00113 
H 4.10203 6.69617 5.49887 
2
timestep 3.26
H 4.99816 5.00348 5.00102 
H 4.10184 6.69652 5.49898 
2
timestep 3.27
H 4.99833 5.00315 5.00093 
H 4.10167 6.69685 5.49907 
2
timestep 3.28
H 4.9985 5.00284 5.00084 
H 4.1015 6.69716 5.49916 
2
timestep 3.29
H 4.99865 5.00254 5.00075 
H 4.10135 6.69746 5.49925 
2
timestep 3.3
H 4.9988 5.00226 5.00067 
H 4.1012 6.69774 5.49933 
2
timestep 3.31
H 4.99894 5.002 5.00059 
H 4.10106 6.698 5.49941 
2
timestep 3.32
H 4.99907 5.00175 5.00052 
H 4.10093 6.69825 5.49948 
2
timestep 3.33
H 4.99919 5.00152 5.00045 
H 4.10081 6.69848 5.49955 
2
timestep 3.34
H 4.99931 5.00131 5.00038 
H 4.10069 6.69869 5.49962 
2
timestep 3.35
H 4.99941 5.00111 5.00033 
H 4.10059 6.69889 5.49967 
2
timestep 3.36
H 4.99951 5.00093 5.00027 
H 4.10049 6.69907 5.49973 
2
timestep 3.37
H 4.9996 5.00076 5.00022 
H 4.1004 6.69924 5.49978 
2
timestep 3.38
H 4.99968 5.00061 5.00018 
H 4.10032 6.69939 5.49982 
2
timestep 3.39
H 4.99975 5.00048 5.00014 
H 4.10025 6.69952 5.49986 
2
timestep 3.4
H 4.99981 5.00036 5.00011 
H 4.10019 6.69964 5.49989 
2
timestep 3.41
H 4.99986 5.00026 5.00008 
H 4.10014 6.69974 5.49992 
2
timestep 3.42
H 4.99991 5.00018 5.00005 
H 4.10009 6.69982 5.49995 
2
timestep 3.43
H 4.99994 5.00011 5.00003 
H 4.10006 6.69989 5.49997 
2
timestep 3.44
H 4.99997 5.00006 5.00002 
H 4.10003 6.69994 5.49998 
2
timestep 3.45
H 4.99999 5.00002 5.00001 
H 4.10001 6.69998 5.49999 
2
timestep 3.46
H 5 5 5 
H 4.1 6.7 5.5 
2
timestep 3.47
H 5 5 5 
H 4.1 6.7 5.5 
2
timestep 3.48
H 4.99999 5.00001 5 
H 4.10001 6.69999 5.5 
2
timestep 3.49
H 4.99998 5.00004 5.00001 
H 4.10002 6.69996 5.49999 
2
timestep 3.5
H 4.99995 5.00009 5.00003 
H 4.10005 6.69991 5.49997 
2
timestep 3.51
H 4.99992 5.00015 5.00004 
H 4.10008 6.69985 5.49996 
2
timestep 3.52
H 4.99988 5.00023 5.00007 
H 4.10012 6.69977 5.49993 
2
timestep 3.53
H 4.99983 5.00032 5.0001 
H 4.10017 6.69968 5.4999 
2
timestep 3.54
H 4.99977 5.00043 5.00013 
H 4.10023 6.69957 5.49987 
2
timestep 3.55
H 4.9997 5.00056 5.00017 
H 4.1003 6.69944 5.49983 
2
timestep 3.56
H 4.99963 5.0007 5.00021 
H 4.10037 6.6993 5.49979 
2
timestep 3.57
H 4.99954 5.00086 5.00025 
H 4.10046 6.69914 5.49975 
2
timestep 3.58
H 4.99945 5.00104 5.00031 
H 4.10055 6.69896 5.49969 
2
timestep 3.59
H 4.99935 5.00123 5.00036 
H 4.10065 6.69877 5.49964 
2
timestep 3.6
H 4.99924 5.00144 5.00042 
H 4.10076 6.69856 5.49958 
2
timestep 3.61
H 4.99912 5.00167 5.00049 
H 4.10088 6.69833 5.49951 
2
timestep 3.62
H 4.99899 5.00191 5.00056 
H 4.10101 6.69809 5.49944 
2
timestep 3.63
H 4.99885 5.00217 5.00064 
H 4.10115 6.69783 5.49936 
2
timestep 3.64
H 4.99871 5.00244 5.00072 
H 4.10129 6.69756 5.49928 
2
timestep 3.65
H 4.99855 5.00273 5.0008 
H 4.10145 6.69727 5.4992 
2
timestep 3.66
H 4.99839 5.00304 5.00089 
H 4.10161 6.69696 5.49911 
2
timestep 3.67
H 4.99822 5.00336 5.00099 
H 4.10178 6.69664 5.49901 
2
timestep 3.68
H 4.99804 5.0037 5.00109 
H 4.10196 6.6963 5.49891 
2
timestep 3.69
H 4.99785 5.00406 5.00119 
H 4.10215 6.69594 5.49881 
2
timestep 3.7
H 4.99765 5.00443 5.0013 
H 4.10235 6.69557 5.4987 
2
timestep 3.71
H 4.99745 5.00483 5.00142 
H 4.10255 6.69517 5.49858 
2
timestep 3.72
H 4.99723 5.00523 5.00154 
H 4.10277 6.69477 5.49846 
2
timestep 3.73
H 4.997 5.00566 5.00166 
H 4.103 6.69434 5.49834 
2
timestep 3.74
H 4.99677 5.0061 5.00179 
H 4.10323 6.6939 5.49821 
2
timestep 3.75
H 4.99653 5.00656 5.00193 
H 4.10347 6.69344 5.49807 
2
timestep 3.76
H 4.99628 5.00704 5.00207 
H 4.10372 6.69296 5.49793 
2
timestep 3.77
H 4.99601 5.00753 5.00221 
H 4.10399 6.69247 5.49779 
2
timestep 3.78
H 4.99574 5.00804 5.00236 
H 4.10426 6.69196 5.49764 
2
timestep 3.79
H 4.99547 5.00857 5.00252 
H 4.10453 6.69143 5.49748 
2
timestep 3.8
H 4.99518 5.00911 5.00268 
H 4.10482 6.69089 5.49732 
2
timestep 3.81
H 4.99488 5.00967 5.00285 
H 4.10512 6.69033 5.49715 
2
timestep 3.82
H 4.99457 5.01025 5.00302 
H 4.10543 6.68975 5.49698 
2
timestep 3.83
H 4.99426 5.01085 5.00319 
H 4.10574 6.68915 5.49681 
2
timestep 3.84
H 4.99393 5.01147 5.00337 
H 4.10607 6.68853 5.49663 
2
timestep 3.85
H 4.99359 5.0121 5.00356 
H 4.10641 6.6879 5.49644 
2
timestep 3.86
H 4.99325 5.01275 5.00375 
H 4.10675 6.68725 5.49625 
2
timestep 3.87
H 4.9929 5.01342 5.00395 
H 4.1071 6.68658 5.49605 
2
timestep 3.88
H 4.99253 5.01411 5.00415 
H 4.10747 6.68589 5.49585 
2
timestep 3.89
H 4.99216 5.01481 5.00436 
H 4.10784 6.68519 5.49564 
2
timestep 3.9
H 4.99178 5.01553 5.00457 
H 4.10822 6.68447 5.49543 
2
timestep 3.91
H 4.99138 5.01628 5.00479 
H 4.10862 6.68372 5.49521 
2
timestep 3.92
H 4.99098 5.01704 5.00501 
H 4.10902 6.68296 5.49499 
2
timestep 3.93
H 4.99057 5.01782 5.00524 
H 4.10943 6.68218 5.49476 
2
timestep 3.94
H 4.99015 5.01861 5.00547 
H 4.10985 6.68139 5.49453 
2
timestep 3.95
H 4.98971 5.01943 5.00571 
H 4.11029 6.68057 5.49429 
2
timestep 3.96
H 4.98927 5.02026 5.00596 
H 4.11073 6.67974 5.49404 
2
timestep 3.97
H 4.98882 5.02112 5.00621 
H 4.11118 6.67888 5.49379 
2
timestep 3.98
H 4.98836 5.02199 5.00647 
H 4.11164 6.67801 5.49353 
2
timestep 3.99
H 4.98788 5.02289 5.00673 
H 4.11212 6.67711 5.49327 
2
timestep 4
H 4.9874 5.0238 5.007 
H 4.1126 6.6762 5.493 
2
timestep 4.01
H 4.98691 5.02473 5.00727 
H 4.11309 6.67527 5.49273 
2
timestep 4.02
H 4.9864 5.02568 5.00755 
H 4.1136 6.67432 5.49245 
2
timestep 4.03
H 4.98589 5.02665 5.00784 
H 4.11411 6.67335 5.49216 
2
timestep 4.04
H 4.98536 5.02765 5.00813 
H 4.11464 6.67235 5.49187 
2
timestep 4.05
H 4.98483 5.02866 5.00843 
H 4.11517 6.67134 5.49157 
2
timestep 4.06
H 4.98428 5.02969 5.00873 
H 4.11572 6.67031 5.49127 
2
timestep 4.07
H 4.98372 5.03075 5.00904 
H 4.11628 6.66925 5.49096 
2
timestep 4.08
H 4.98315 5.03182 5.00936 
H 4.11685 6.66818 5.49064 
2
timestep 4.09
H 4.98257 5.03292 5.00968 
H 4.11743 6.66708 5.49032 
2
timestep 4.1
H 4.98198 5.03403 5.01001 
H 4.11802 6.66597 5.48999 
2
timestep 4.11
H 4.98138 5.03517 5.01034 
H 4.11862 6.66483 5.48966 
2
timestep 4.12
H 4.98077 5.03633 5.01069 
H 4.11923 6.66367 5.48931 
2
timestep 4.13
H 4.98014 5.03751 5.01103 
H 4.11986 6.66249 5.48897 
2
timestep 4.14
H 4.9795 5.03871 5.01139 
H 4.1205 6.66129 5.48861 
2
timestep 4.15
H 4.97886 5.03994 5.01175 
H 4.12114 6.66006 5.48825 
2
timestep 4.16
H 4.9782 5.04119 5.01211 
H 4.1218 6.65881 5.48789 
2
timestep 4.17
H 4.97752 5.04246 5.01249 
H 4.12248 6.65754 5.48751 
2
timestep 4.18
H 4.97684 5.04375 5.01287 
H 4.12316 6.65625 5.48713 
2
timestep 4.19
H 4.97614 5.04507 5.01326 
H 4.12386 6.65493 5.48674 
2
timestep 4.2
H 4.97543 5.04641 5.01365 
H 4.12457 6.65359 5.48635 
2
timestep 4.21
H 4.97471 5.04777 5.01405 
H 4.12529 6.65223 5.48595 
2
timestep 4.22
H 4.97397 5.04916 5.01446 
H 4.12603 6.65084 5.48554 
2
timestep 4.23
H 4.97323 5.05057 5.01487 
H 4.12677 6.64943 5.48513 
2
timestep 4.24
H 4.97247 5.05201 5.0153 
H 4.12753 6.64799 5.4847 
2
timestep 4.25
H 4.97169 5.05347 5.01573 
H 4.12831 6.64653 5.48427 
2
timestep 4.26
H 4.9709 5.05496 5.01616 
H 4.1291 6.64504 5.48384 
2
timestep 4.27
H 4.9701 5.05647 5.01661 
H 4.1299 6.64353 5.48339 
2
timestep 4.28
H 4.96929 5.05801 5.01706 
H 4.13071 6.64199 5.48294 
2
timestep 4.29
H 4.96846 5.05957 5.01752 
H 4.13154 6.64043 5.48248 
2
timestep 4.3
H 4.96762 5.06116 5.01799 
H 4.13238 6.63884 5.48201 
2
timestep 4.31
H 4.96676 5.06278 5.01846 
H 4.13324 6.63722 5.48154 
2
timestep 4.32
H 4.96589 5.06442 5.01895 
H 4.13411 6.63558 5.48105 
2
timestep 4.33
H 4.96501 5.0661 5.01944 
H 4.13499 6.6339 5.48056 
2
timestep 4.34
H 4.96411 5.0678 5.01994 
H 4.13589 6.6322 5.48006 
2
timestep 4.35
H 4.96319 5.06952 5.02045 