2
timestep 0.01
H 5.00057 5.00031 4.99997 
H 4.09943 4.49969 5.05003 
2
timestep 0.02
H 5.00223 5.00124 4.99988 
H 4.09777 4.49876 5.05012 
2
timestep 0.03
H 5.00491 5.00273 4.99973 
H 4.09509 4.49727 5.05027 
2
timestep 0.04
H 5.00847 5.00471 4.99953 
H 4.09153 4.49529 5.05047 
2
timestep 0.05
H 5.01276 5.00709 4.99929 
H 4.08724 4.49291 5.05071 
2
timestep 0.06
H 5.01763 5.00979 4.99902 
H 4.08237 4.49021 5.05098 
2
timestep 0.07
H 5.02291 5.01273 4.99873 
H 4.07709 4.48727 5.05127 
2
timestep 0.08
H 5.02848 5.01582 4.99842 
H 4.07152 4.48418 5.05158 
2
timestep 0.09
H 5.03422 5.01901 4.9981 
H 4.06578 4.48099 5.0519 
2
timestep 0.1
H 5.04003 5.02224 4.99778 
H 4.05997 4.47776 5.05222 
2
timestep 0.11
H 5.04584 5.02547 4.99745 
H 4.05416 4.47453 5.05255 
2
timestep 0.12
H 5.05159 5.02866 4.99713 
H 4.04841 4.47134 5.05287 
2
timestep 0.13
H 5.05724 5.0318 4.99682 
H 4.04276 4.4682 5.05318 
2
timestep 0.14
H 5.06276 5.03487 4.99651 
H 4.03724 4.46513 5.05349 
2
timestep 0.15
H 5.06811 5.03784 4.99622 
H 4.03189 4.46216 5.05378 
2
timestep 0.16
H 5.07328 5.04071 4.99593 
H 4.02672 4.45929 5.05407 
2
timestep 0.17
H 5.07826 5.04348 4.99565 
H 4.02174 4.45652 5.05435 
2
timestep 0.18
H 5.08304 5.04613 4.99539 
H 4.01696 4.45387 5.05461 
2
timestep 0.19
H 5.08761 5.04867 4.99513 
H 4.01239 4.45133 5.05487 
2
timestep 0.2
H 5.09198 5.0511 4.99489 
H 4.00802 4.4489 5.05511 
2
timestep 0.21
H 5.09614 5.05341 4.99466 
H 4.00386 4.44659 5.05534 
2
timestep 0.22
H 5.10009 5.0556 4.99444 
H 3.99991 4.4444 5.05556 
2
timestep 0.23
H 5.10383 5.05768 4.99423 
H 3.99617 4.44232 5.05577 
2
timestep 0.24
H 5.10736 5.05964 4.99404 
H 3.99264 4.44036 5.05596 
2
timestep 0.25
H 5.11069 5.06149 4.99385 
H 3.98931 4.43851 5.05615 
2
timestep 0.26
H 5.11382 5.06323 4.99368 
H 3.98618 4.43677 5.05632 
2
timestep 0.27
H 5.11675 5.06486 4.99351 
H 3.98325 4.43514 5.05649 
2
timestep 0.28
H 5.11948 5.06638 4.99336 
H 3.98052 4.43362 5.05664 
2
timestep 0.29
H 5.12202 5.06779 4.99322 
H 3.97798 4.43221 5.05678 
2
timestep 0.3
H 5.12437 5.06909 4.99309 
H 3.97563 4.43091 5.05691 
2
timestep 0.31
H 5.12653 5.07029 4.99297 
H 3.97347 4.42971 5.05703 
2
timestep 0.32
H 5.1285 5.07139 4.99286 
H 3.9715 4.42861 5.05714 
2
timestep 0.33
H 5.13029 5.07238 4.99276 
H 3.96971 4.42762 5.05724 
2
timestep 0.34
H 5.1319 5.07328 4.99267 
H 3.9681 4.42672 5.05733 
2
timestep 0.35
H 5.13332 5.07407 4.99259 
H 3.96668 4.42593 5.05741 
2
timestep 0.36
H 5.13457 5.07476 4.99252 
H 3.96543 4.42524 5.05748 
2
timestep 0.37
H 5.13564 5.07536 4.99246 
H 3.96436 4.42464 5.05754 
2
timestep 0.38
H 5.13654 5.07585 4.99241 
H 3.96346 4.42415 5.05759 
2
timestep 0.39
H 5.13726 5.07625 4.99237 
H 3.96274 4.42375 5.05763 
2
timestep 0.4
H 5.1378 5.07656 4.99234 
H 3.9622 4.42344 5.05766 
2
timestep 0.41
H 5.13817 5.07676 4.99232 
H 3.96183 4.42324 5.05768 
2
timestep 0.42
H 5.13837 5.07687 4.99231 
H 3.96163 4.42313 5.05769 
2
timestep 0.43
H 5.1384 5.07689 4.99231 
H 3.9616 4.42311 5.05769 
2
timestep 0.44
H 5.13825 5.07681 4.99232 
H 3.96175 4.42319 5.05768 
2
timestep 0.45
H 5.13793 5.07663 4.99234 
H 3.96207 4.42337 5.05766 
2
timestep 0.46
H 5.13744 5.07635 4.99236 
H 3.96256 4.42365 5.05764 
2
timestep 0.47
H 5.13677 5.07598 4.9924 
H 3.96323 4.42402 5.0576 
2
timestep 0.48
H 5.13593 5.07551 4.99245 
H 3.96407 4.42449 5.05755 
2
timestep 0.49
H 5.13491 5.07495 4.99251 
H 3.96509 4.42505 5.05749 
2
timestep 0.5
H 5.13371 5.07429 4.99257 
H 3.96629 4.42571 5.05743 
2
timestep 0.51
H 5.13234 5.07352 4.99265 
H 3.96766 4.42648 5.05735 
2
timestep 0.52
H 5.13079 5.07266 4.99273 
H 3.96921 4.42734 5.05727 
2
timestep 0.53
H 5.12905 5.0717 4.99283 
H 3.97095 4.4283 5.05717 
2
timestep 0.54
H 5.12714 5.07063 4.99294 
H 3.97286 4.42937 5.05706 
2
timestep 0.55
H 5.12503 5.06946 4.99305 
H 3.97497 4.43054 5.05695 
2
timestep 0.56
H 5.12274 5.06819 4.99318 
H 3.97726 4.43181 5.05682 
2
timestep 0.57
H 5.12026 5.06681 4.99332 
H 3.97974 4.43319 5.05668 
2
timestep 0.58
H 5.11758 5.06532 4.99347 
H 3.98242 4.43468 5.05653 
2
timestep 0.59
H 5.11471 5.06373 4.99363 
H 3.98529 4.43627 5.05637 
2
timestep 0.6
H 5.11164 5.06202 4.9938 
H 3.98836 4.43798 5.0562 
2
timestep 0.61
H 5.10837 5.06021 4.99398 
H 3.99163 4.43979 5.05602 
2
timestep 0.62
H 5.1049 5.05828 4.99417 
H 3.9951 4.44172 5.05583 
2
timestep 0.63
H 5.10122 5.05623 4.99438 
H 3.99878 4.44377 5.05562 
2
timestep 0.64
H 5.09734 5.05408 4.99459 
H 4.00266 4.44592 5.05541 
2
timestep 0.65
H 5.09324 5.0518 4.99482 
H 4.00676 4.4482 5.05518 
2
timestep 0.66
H 5.08894 5.04941 4.99506 
H 4.01106 4.45059 5.05494 
2
timestep 0.67
H 5.08443 5.0469 4.99531 
H 4.01557 4.4531 5.05469 
2
timestep 0.68
H 5.07971 5.04428 4.99557 
H 4.02029 4.45572 5.05443 
2
timestep 0.69
H 5.07479 5.04155 4.99585 
H 4.02521 4.45845 5.05415 
2
timestep 0.7
H 5.06967 5.03871 4.99613 
H 4.03033 4.46129 5.05387 
2
timestep 0.71
H 5.06437 5.03576 4.99642 
H 4.03563 4.46424 5.05358 
2
timestep 0.72
H 5.0589 5.03272 4.99673 
H 4.0411 4.46728 5.05327 
2
timestep 0.73
H 5.05329 5.02961 4.99704 
H 4.04671 4.47039 5.05296 
2
timestep 0.74
H 5.04756 5.02642 4.99736 
H 4.05244 4.47358 5.05264 
2
timestep 0.75
H 5.04176 5.0232 4.99768 
H 4.05824 4.4768 5.05232 
2
timestep 0.76
H 5.03594 5.01997 4.998 
H 4.06406 4.48003 5.052 
2
timestep 0.77
H 5.03018 5.01676 4.99832 
H 4.06982 4.48324 5.05168 
2
timestep 0.78
H 5.02455 5.01364 4.99864 
H 4.07545 4.48636 5.05136 
2
timestep 0.79
H 5.01917 5.01065 4.99894 
H 4.08083 4.48935 5.05106 
2
timestep 0.8
H 5.01416 5.00787 4.99921 
H 4.08584 4.49213 5.05079 
2
timestep 0.81
H 5.00968 5.00538 4.99946 
H 4.09032 4.49462 5.05054 
2
timestep 0.82
H 5.00589 5.00327 4.99967 
H 4.09411 4.49673 5.05033 
2
timestep 0.83
H 5.00293 5.00163 4.99984 
H 4.09707 4.49837 5.05016 
2
timestep 0.84
H 5.00095 5.00053 4.99995 
H 4.09905 4.49947 5.05005 
2
timestep 0.85
H 5.00005 5.00003 5 
H 4.09995 4.49997 5.05 
2
timestep 0.86
H 5.00028 5.00016 4.99998 
H 4.09972 4.49984 5.05002 
2
timestep 0.87
H 5.00162 5.0009 4.99991 
H 4.09838 4.4991 5.05009 
2
timestep 0.88
H 5.00401 5.00223 4.99978 
H 4.09599 4.49777 5.05022 
2
timestep 0.89
H 5.00733 5.00407 4.99959 
H 4.09267 4.49593 5.05041 
2
timestep 0.9
H 5.01142 5.00634 4.99937 
H 4.08858 4.49366 5.05063 
2
timestep 0.91
H 5.01613 5.00896 4.9991 
H 4.08387 4.49104 5.0509 
2
timestep 0.92
H 5.0213 5.01183 4.99882 
H 4.0787 4.48817 5.05118 
2
timestep 0.93
H 5.0268 5.01489 4.99851 
H 4.0732 4.48511 5.05149 
2
timestep 0.94
H 5.03249 5.01805 4.99819 
H 4.06751 4.48195 5.05181 
2
timestep 0.95
H 5.03829 5.02127 4.99787 
H 4.06171 4.47873 5.05213 
2
timestep 0.96
H 5.04411 5.02451 4.99755 
H 4.05589 4.47549 5.05245 
2
timestep 0.97
H 5.04989 5.02772 4.99723 
H 4.05011 4.47228 5.05277 
2
timestep 0.98
H 5.05557 5.03087 4.99691 
H 4.04443 4.46913 5.05309 
2
timestep 0.99
H 5.06113 5.03396 4.9966 
H 4.03887 4.46604 5.0534 
2
timestep 1
H 5.06653 5.03696 4.9963 
H 4.03347 4.46304 5.0537 
2
timestep 1.01
H 5.07176 5.03987 4.99601 
H 4.02824 4.46013 5.05399 
2
timestep 1.02
H 5.0768 5.04266 4.99573 
H 4.0232 4.45734 5.05427 
2
timestep 1.03
H 5.08164 5.04535 4.99546 
H 4.01836 4.45465 5.05454 
2
timestep 1.04
H 5.08627 5.04793 4.99521 
H 4.01373 4.45207 5.05479 
2
timestep 1.05
H 5.0907 5.05039 4.99496 
H 4.0093 4.44961 5.05504 
2
timestep 1.06
H 5.09492 5.05273 4.99473 
H 4.00508 4.44727 5.05527 
2
timestep 1.07
H 5.09893 5.05496 4.9945 
H 4.00107 4.44504 5.0555 
2
timestep 1.08
H 5.10273 5.05707 4.99429 
H 3.99727 4.44293 5.05571 
2
timestep 1.09
H 5.10633 5.05907 4.99409 
H 3.99367 4.44093 5.05591 
2
timestep 1.1
H 5.10972 5.06095 4.9939 
H 3.99028 4.43905 5.0561 
2
timestep 1.11
H 5.11291 5.06273 4.99373 
H 3.98709 4.43727 5.05627 
2
timestep 1.12
H 5.11589 5.06439 4.99356 
H 3.98411 4.43561 5.05644 
2
timestep 1.13
H 5.11869 5.06594 4.99341 
H 3.98131 4.43406 5.05659 
2
timestep 1.14
H 5.12128 5.06738 4.99326 
H 3.97872 4.43262 5.05674 
2
timestep 1.15
H 5.12369 5.06872 4.99313 
H 3.97631 4.43128 5.05687 
2
timestep 1.16
H 5.1259 5.06995 4.99301 
H 3.9741 4.43005 5.05699 
2
timestep 1.17
H 5.12793 5.07107 4.99289 
H 3.97207 4.42893 5.05711 
2
timestep 1.18
H 5.12978 5.0721 4.99279 
H 3.97022 4.4279 5.05721 
2
timestep 1.19
H 5.13144 5.07302 4.9927 
H 3.96856 4.42698 5.0573 
2
timestep 1.2
H 5.13292 5.07384 4.99262 
H 3.96708 4.42616 5.05738 
2
timestep 1.21
H 5.13422 5.07457 4.99254 
H 3.96578 4.42543 5.05746 
2
timestep 1.22
H 5.13534 5.07519 4.99248 
H 3.96466 4.42481 5.05752 
2
timestep 1.23
H 5.13629 5.07572 4.99243 
H 3.96371 4.42428 5.05757 
2
timestep 1.24
H 5.13706 5.07614 4.99239 
H 3.96294 4.42386 5.05761 
2
timestep 1.25
H 5.13766 5.07648 4.99235 
H 3.96234 4.42352 5.05765 
2
timestep 1.26
H 5.13808 5.07671 4.99233 
H 3.96192 4.42329 5.05767 
2
timestep 1.27
H 5.13833 5.07685 4.99231 
H 3.96167 4.42315 5.05769 
2
timestep 1.28
H 5.13841 5.07689 4.99231 
H 3.96159 4.42311 5.05769 
2
timestep 1.29
H 5.13831 5.07684 4.99232 
H 3.96169 4.42316 5.05768 
2
timestep 1.3
H 5.13804 5.07669 4.99233 
H 3.96196 4.42331 5.05767 
2
timestep 1.31
H 5.1376 5.07645 4.99236 
H 3.9624 4.42355 5.05764 
2
timestep 1.32
H 5.13699 5.0761 4.99239 
H 3.96301 4.4239 5.05761 
2
timestep 1.33
H 5.1362 5.07566 4.99243 
H 3.9638 4.42434 5.05757 
2
timestep 1.34
H 5.13523 5.07513 4.99249 
H 3.96477 4.42487 5.05751 
2
timestep 1.35
H 5.13409 5.07449 4.99255 
H 3.96591 4.42551 5.05745 
2
timestep 1.36
H 5.13277 5.07376 4.99262 
H 3.96723 4.42624 5.05738 
2
timestep 1.37
H 5.13127 5.07293 4.99271 
H 3.96873 4.42707 5.05729 
2
timestep 1.38
H 5.12959 5.07199 4.9928 
H 3.97041 4.42801 5.0572 
2
timestep 1.39
H 5.12773 5.07096 4.9929 
H 3.97227 4.42904 5.0571 
2
timestep 1.4
H 5.12568 5.06982 4.99302 
H 3.97432 4.43018 5.05698 
2
timestep 1.41
H 5.12344 5.06858 4.99314 
H 3.97656 4.43142 5.05686 
2
timestep 1.42
H 5.12102 5.06723 4.99328 
H 3.97898 4.43277 5.05672 
2
timestep 1.43
H 5.1184 5.06578 4.99342 
H 3.9816 4.43422 5.05658 
2
timestep 1.44
H 5.11559 5.06422 4.99358 
H 3.98441 4.43578 5.05642 
2
timestep 1.45
H 5.11258 5.06254 4.99375 
H 3.98742 4.43746 5.05625 
2
timestep 1.46
H 5.10937 5.06076 4.99392 
H 3.99063 4.43924 5.05608 
2
timestep 1.47
H 5.10596 5.05887 4.99411 
H 3.99404 4.44113 5.05589 
2
timestep 1.48
H 5.10234 5.05686 4.99431 
H 3.99766 4.44314 5.05569 
2
timestep 1.49
H 5.09852 5.05473 4.99453 
H 4.00148 4.44527 5.05547 
2
timestep 1.5
H 5.09448 5.05249 4.99475 
H 4.00552 4.44751 5.05525 
2
timestep 1.51
H 5.09024 5.05014 4.99499 
H 4.00976 4.44986 5.05501 
2
timestep 1.52
H 5.08579 5.04766 4.99523 
H 4.01421 4.45234 5.05477 
2
timestep 1.53
H 5.08114 5.04508 4.99549 
H 4.01886 4.45492 5.05451 
2
timestep 1.54
H 5.07627 5.04237 4.99576 
H 4.02373 4.45763 5.05424 
2
timestep 1.55
H 5.07122 5.03956 4.99604 
H 4.02878 4.46044 5.05396 
2
timestep 1.56
H 5.06597 5.03665 4.99633 
H 4.03403 4.46335 5.05367 
2
timestep 1.57
H 5.06055 5.03364 4.99664 
H 4.03945 4.46636 5.05336 
2
timestep 1.58
H 5.05498 5.03054 4.99695 
H 4.04502 4.46946 5.05305 
2
timestep 1.59
H 5.04928 5.02738 4.99726 
H 4.05072 4.47262 5.05274 
2
timestep 1.6
H 5.0435 5.02417 4.99758 
H 4.0565 4.47583 5.05242 
2
timestep 1.61
H 5.03768 5.02093 4.99791 
H 4.06232 4.47907 5.05209 
2
timestep 1.62
H 5.03189 5.01771 4.99823 
H 4.06811 4.48229 5.05177 
2
timestep 1.63
H 5.0262 5.01456 4.99854 
H 4.0738 4.48544 5.05146 
2
timestep 1.64
H 5.02074 5.01152 4.99885 
H 4.07926 4.48848 5.05115 
2
timestep 1.65
H 5.01561 5.00867 4.99913 
H 4.08439 4.49133 5.05087 
2
timestep 1.66
H 5.01095 5.00609 4.99939 
H 4.08905 4.49391 5.05061 
2
timestep 1.67
H 5.00694 5.00385 4.99961 
H 4.09306 4.49615 5.05039 
2
timestep 1.68
H 5.00371 5.00206 4.99979 
H 4.09629 4.49794 5.05021 
2
timestep 1.69
H 5.00143 5.0008 4.99992 
H 4.09857 4.4992 5.05008 
2
timestep 1.7
H 5.0002 5.00011 4.99999 
H 4.0998 4.49989 5.05001 
2
timestep 1.71
H 5.00009 5.00005 4.99999 
H 4.09991 4.49995 5.05001 
2
timestep 1.72
H 5.00111 5.00062 4.99994 
H 4.09889 4.49938 5.05006 
2
timestep 1.73
H 5.0032 5.00178 4.99982 
H 4.0968 4.49822 5.05018 
2
timestep 1.74
H 5.00625 5.00347 4.99965 
H 4.09375 4.49653 5.05035 
2
timestep 1.75
H 5.01013 5.00563 4.99944 
H 4.08987 4.49437 5.05056 
2
timestep 1.76
H 5.01467 5.00815 4.99919 
H 4.08533 4.49185 5.05081 
2
timestep 1.77
H 5.01972 5.01095 4.9989 
H 4.08028 4.48905 5.0511 
2
timestep 1.78
H 5.02513 5.01396 4.9986 
H 4.07487 4.48604 5.0514 
2
timestep 1.79
H 5.03078 5.0171 4.99829 
H 4.06922 4.4829 5.05171 
2
timestep 1.8
H 5.03656 5.02031 4.99797 
H 4.06344 4.47969 5.05203 
2
timestep 1.81
H 5.04238 5.02354 4.99765 
H 4.05762 4.47646 5.05235 
2
timestep 1.82
H 5.04817 5.02676 4.99732 
H 4.05183 4.47324 5.05268 
2
timestep 1.83
H 5.05389 5.02994 4.99701 
H 4.04611 4.47006 5.05299 
2
timestep 1.84
H 5.05949 5.03305 4.9967 
H 4.04051 4.46695 5.0533 
2
timestep 1.85
H 5.06494 5.03608 4.99639 
H 4.03506 4.46392 5.05361 
2
timestep 1.86
H 5.07022 5.03901 4.9961 
H 4.02978 4.46099 5.0539 
2
timestep 1.87
H 5.07531 5.04184 4.99582 
H 4.02469 4.45816 5.05418 
2
timestep 1.88
H 5.08021 5.04456 4.99554 
H 4.01979 4.45544 5.05446 
2
timestep 1.89
H 5.08491 5.04717 4.99528 
H 4.01509 4.45283 5.05472 
2
timestep 1.9
H 5.0894 5.04967 4.99503 
H 4.0106 4.45033 5.05497 
2
timestep 1.91
H 5.09368 5.05205 4.9948 
H 4.00632 4.44795 5.0552 
2
timestep 1.92
H 5.09776 5.05431 4.99457 
H 4.00224 4.44569 5.05543 
2
timestep 1.93
H 5.10162 5.05646 4.99435 
H 3.99838 4.44354 5.05565 
2
timestep 1.94
H 5.10528 5.05849 4.99415 
H 3.99472 4.44151 5.05585 
2
timestep 1.95
H 5.10873 5.0604 4.99396 
H 3.99127 4.4396 5.05604 
2
timestep 1.96
H 5.11198 5.06221 4.99378 
H 3.98802 4.43779 5.05622 
2
timestep 1.97
H 5.11502 5.0639 4.99361 
H 3.98498 4.4361 5.05639 
2
timestep 1.98
H 5.11787 5.06549 4.99345 
H 3.98213 4.43451 5.05655 
2
timestep 1.99
H 5.12053 5.06696 4.9933 
H 3.97947 4.43304 5.0567 
2
timestep 2
H 5.12299 5.06833 4.99317 
H 3.97701 4.43167 5.05683 
2
timestep 2.01
H 5.12526 5.06959 4.99304 
H 3.97474 4.43041 5.05696 
2
timestep 2.02
H 5.12735 5.07075 4.99293 
H 3.97265 4.42925 5.05707 
2
timestep 2.03
H 5.12925 5.0718 4.99282 
H 3.97075 4.4282 5.05718 
2
timestep 2.04
H 5.13096 5.07276 4.99272 
H 3.96904 4.42724 5.05728 
2
timestep 2.05
H 5.13249 5.07361 4.99264 
H 3.96751 4.42639 5.05736 
2
timestep 2.06
H 5.13385 5.07436 4.99256 
H 3.96615 4.42564 5.05744 
2
timestep 2.07
H 5.13502 5.07501 4.9925 
H 3.96498 4.42499 5.0575 
2
timestep 2.08
H 5.13602 5.07557 4.99244 
H 3.96398 4.42443 5.05756 
2
timestep 2.09
H 5.13685 5.07603 4.9924 
H 3.96315 4.42397 5.0576 
2
timestep 2.1
H 5.1375 5.07639 4.99236 
H 3.9625 4.42361 5.05764 
2
timestep 2.11
H 5.13797 5.07665 4.99233 
H 3.96203 4.42335 5.05767 
2
timestep 2.12
H 5.13827 5.07682 4.99232 
H 3.96173 4.42318 5.05768 
2
timestep 2.13
H 5.1384 5.07689 4.99231 
H 3.9616 4.42311 5.05769 
2
timestep 2.14
H 5.13836 5.07687 4.99231 
H 3.96164 4.42313 5.05769 
2
timestep 2.15
H 5.13814 5.07675 4.99233 
H 3.96186 4.42325 5.05767 
2
timestep 2.16
H 5.13775 5.07653 4.99235 
H 3.96225 4.42347 5.05765 
2
timestep 2.17
H 5.13719 5.07622 4.99238 
H 3.96281 4.42378 5.05762 
2
timestep 2.18
H 5.13645 5.07581 4.99242 
H 3.96355 4.42419 5.05758 
2
timestep 2.19
H 5.13554 5.0753 4.99247 
H 3.96446 4.4247 5.05753 
2
timestep 2.2
H 5.13445 5.07469 4.99253 
H 3.96555 4.42531 5.05747 
2
timestep 2.21
H 5.13318 5.07399 4.9926 
H 3.96682 4.42601 5.0574 
2
timestep 2.22
H 5.13174 5.07319 4.99268 
H 3.96826 4.42681 5.05732 
2
timestep 2.23
H 5.13011 5.07228 4.99277 
H 3.96989 4.42772 5.05723 
2
timestep 2.24
H 5.1283 5.07128 4.99287 
H 3.9717 4.42872 5.05713 
2
timestep 2.25
H 5.12631 5.07017 4.99298 
H 3.97369 4.42983 5.05702 
2
timestep 2.26
H 5.12413 5.06896 4.9931 
H 3.97587 4.43104 5.0569 
2
timestep 2.27
H 5.12176 5.06765 4.99324 
H 3.97824 4.43235 5.05676 
2
timestep 2.28
H 5.1192 5.06622 4.99338 
H 3.9808 4.43378 5.05662 
2
timestep 2.29
H 5.11645 5.06469 4.99353 
H 3.98355 4.43531 5.05647 
2
timestep 2.3
H 5.1135 5.06305 4.99369 
H 3.9865 4.43695 5.05631 
2
timestep 2.31
H 5.11035 5.0613 4.99387 
H 3.98965 4.4387 5.05613 
2
timestep 2.32
H 5.107 5.05944 4.99406 
H 3.993 4.44056 5.05594 
2
timestep 2.33
H 5.10344 5.05747 4.99425 
H 3.99656 4.44253 5.05575 
2
timestep 2.34
H 5.09968 5.05538 4.99446 
H 4.00032 4.44462 5.05554 
2
timestep 2.35
H 5.09571 5.05317 4.99468 
H 4.00429 4.44683 5.05532 
2
timestep 2.36
H 5.09153 5.05085 4.99491 
H 4.00847 4.44915 5.05509 
2
timestep 2.37
H 5.08714 5.04841 4.99516 
H 4.01286 4.45159 5.05484 
2
timestep 2.38
H 5.08255 5.04586 4.99541 
H 4.01745 4.45414 5.05459 
2
timestep 2.39
H 5.07775 5.04319 4.99568 
H 4.02225 4.45681 5.05432 
2
timestep 2.4
H 5.07274 5.04041 4.99596 
H 4.02726 4.45959 5.05404 
2
timestep 2.41
H 5.06755 5.03753 4.99625 
H 4.03245 4.46247 5.05375 
2
timestep 2.42
H 5.06218 5.03455 4.99655 
H 4.03782 4.46545 5.05345 
2
timestep 2.43
H 5.05666 5.03148 4.99685 
H 4.04334 4.46852 5.05315 
2
timestep 2.44
H 5.05099 5.02833 4.99717 
H 4.04901 4.47167 5.05283 
2
timestep 2.45
H 5.04523 5.02513 4.99749 
H 4.05477 4.47487 5.05251 
2
timestep 2.46
H 5.03941 5.0219 4.99781 
H 4.06059 4.4781 5.05219 
2
timestep 2.47
H 5.03361 5.01867 4.99813 
H 4.06639 4.48133 5.05187 
2
timestep 2.48
H 5.02788 5.01549 4.99845 
H 4.07212 4.48451 5.05155 
2
timestep 2.49
H 5.02234 5.01241 4.99876 
H 4.07766 4.48759 5.05124 
2
timestep 2.5
H 5.01709 5.0095 4.99905 
H 4.08291 4.4905 5.05095 
2
timestep 2.51
H 5.01228 5.00682 4.99932 
H 4.08772 4.49318 5.05068 
2
timestep 2.52
H 5.00806 5.00448 4.99955 
H 4.09194 4.49552 5.05045 
2
timestep 2.53
H 5.00458 5.00255 4.99975 
H 4.09542 4.49745 5.05025 
2
timestep 2.54
H 5.00201 5.00111 4.99989 
H 4.09799 4.49889 5.05011 
2
timestep 2.55
H 5.00045 5.00025 4.99997 
H 4.09955 4.49975 5.05003 
2
timestep 2.56
H 5.00001 5 5 
H 4.09999 4.5 5.05 
2
timestep 2.57
H 5.00069 5.00038 4.99996 
H 4.09931 4.49962 5.05004 
2
timestep 2.58
H 5.00247 5.00137 4.99986 
H 4.09753 4.49863 5.05014 
2
timestep 2.59
H 5.00525 5.00291 4.99971 
H 4.09475 4.49709 5.05029 
2
timestep 2.6
H 5.00889 5.00494 4.99951 
H 4.09111 4.49506 5.05049 
2
timestep 2.61
H 5.01325 5.00736 4.99926 
H 4.08675 4.49264 5.05074 
2
timestep 2.62
H 5.01817 5.01009 4.99899 
H 4.08183 4.48991 5.05101 
2
timestep 2.63
H 5.02349 5.01305 4.9987 
H 4.07651 4.48695 5.0513 
2
timestep 2.64
H 5.02908 5.01615 4.99838 
H 4.07092 4.48385 5.05162 
2
timestep 2.65
H 5.03483 5.01935 4.99807 
H 4.06517 4.48065 5.05193 
2
timestep 2.66
H 5.04064 5.02258 4.99774 
H 4.05936 4.47742 5.05226 
2
timestep 2.67
H 5.04645 5.02581 4.99742 
H 4.05355 4.47419 5.05258 
2
timestep 2.68
H 5.0522 5.029 4.9971 
H 4.0478 4.471 5.0529 
2
timestep 2.69
H 5.05783 5.03213 4.99679 
H 4.04217 4.46787 5.05321 
2
timestep 2.7
H 5.06333 5.03518 4.99648 
H 4.03667 4.46482 5.05352 
2
timestep 2.71
H 5.06866 5.03815 4.99619 
H 4.03134 4.46185 5.05381 
2
timestep 2.72
H 5.07382 5.04101 4.9959 
H 4.02618 4.45899 5.0541 
2
timestep 2.73
H 5.07877 5.04376 4.99562 
H 4.02123 4.45624 5.05438 
2
timestep 2.74
H 5.08353 5.04641 4.99536 
H 4.01647 4.45359 5.05464 
2
timestep 2.75
H 5.08808 5.04894 4.99511 
H 4.01192 4.45106 5.05489 
2
timestep 2.76
H 5.09243 5.05135 4.99487 
H 4.00757 4.44865 5.05513 
2
timestep 2.77
H 5.09656 5.05365 4.99464 
H 4.00344 4.44635 5.05536 
2
timestep 2.78
H 5.10049 5.05583 4.99442 
H 3.99951 4.44417 5.05558 
2
timestep 2.79
H 5.10421 5.05789 4.99421 
H 3.99579 4.44211 5.05579 
2
timestep 2.8
H 5.10772 5.05984 4.99402 
H 3.99228 4.44016 5.05598 
2
timestep 2.81
H 5.11103 5.06168 4.99383 
H 3.98897 4.43832 5.05617 
2
timestep 2.82
H 5.11414 5.06341 4.99366 
H 3.98586 4.43659 5.05634 
2
timestep 2.83
H 5.11704 5.06502 4.9935 
H 3.98296 4.43498 5.0565 
2
timestep 2.84
H 5.11976 5.06653 4.99335 
H 3.98024 4.43347 5.05665 
2
timestep 2.85
H 5.12228 5.06793 4.99321 
H 3.97772 4.43207 5.05679 
2
timestep 2.86
H 5.1246 5.06922 4.99308 
H 3.9754 4.43078 5.05692 
2
timestep 2.87
H 5.12674 5.07041 4.99296 
H 3.97326 4.42959 5.05704 
2
timestep 2.88
H 5.1287 5.0715 4.99285 
H 3.9713 4.4285 5.05715 
2
timestep 2.89
H 5.13047 5.07248 4.99275 
H 3.96953 4.42752 5.05725 
2
timestep 2.9
H 5.13206 5.07336 4.99266 
H 3.96794 4.42664 5.05734 
2
timestep 2.91
H 5.13346 5.07415 4.99259 
H 3.96654 4.42585 5.05741 
2
timestep 2.92
H 5.13469 5.07483 4.99252 
H 3.96531 4.42517 5.05748 
2
timestep 2.93
H 5.13574 5.07541 4.99246 
H 3.96426 4.42459 5.05754 
2
timestep 2.94
H 5.13662 5.0759 4.99241 
H 3.96338 4.4241 5.05759 
2
timestep 2.95
H 5.13732 5.07629 4.99237 
H 3.96268 4.42371 5.05763 
2
timestep 2.96
H 5.13785 5.07658 4.99234 
H 3.96215 4.42342 5.05766 
2
timestep 2.97
H 5.1382 5.07678 4.99232 
H 3.9618 4.42322 5.05768 
2
timestep 2.98
H 5.13838 5.07688 4.99231 
H 3.96162 4.42312 5.05769 
2
timestep 2.99
H 5.13839 5.07688 4.99231 
H 3.96161 4.42312 5.05769 
2
timestep 3
H 5.13822 5.07679 4.99232 
H 3.96178 4.42321 5.05768 
2
timestep 3.01
H 5.13789 5.0766 4.99234 
H 3.96211 4.4234 5.05766 
2
timestep 3.02
H 5.13737 5.07632 4.99237 
H 3.96263 4.42368 5.05763 
2
timestep 3.03
H 5.13669 5.07594 4.99241 
H 3.96331 4.42406 5.05759 
2
timestep 3.04
H 5.13583 5.07546 4.99245 
H 3.96417 4.42454 5.05755 
2
timestep 3.05
H 5.13479 5.07488 4.99251 
H 3.96521 4.42512 5.05749 
2
timestep 3.06
H 5.13358 5.07421 4.99258 
H 3.96642 4.42579 5.05742 
2
timestep 3.07
H 5.13219 5.07344 4.99266 
H 3.96781 4.42656 5.05734 
2
timestep 3.08
H 5.13061 5.07256 4.99274 
H 3.96939 4.42744 5.05726 
2
timestep 3.09
H 5.12886 5.07159 4.99284 
H 3.97114 4.42841 5.05716 
2
timestep 3.1
H 5.12692 5.07051 4.99295 
H 3.97308 4.42949 5.05705 
2
timestep 3.11
H 5.1248 5.06933 4.99307 
H 3.9752 4.43067 5.05693 
2
timestep 3.12
H 5.12249 5.06805 4.9932 
H 3.97751 4.43195 5.0568 
2
timestep 3.13
H 5.11998 5.06666 4.99333 
H 3.98002 4.43334 5.05667 
2
timestep 3.14
H 5.11729 5.06516 4.99348 
H 3.98271 4.43484 5.05652 
2
timestep 3.15
H 5.1144 5.06355 4.99364 
H 3.9856 4.43645 5.05636 
2
timestep 3.16
H 5.11131 5.06184 4.99382 
H 3.98869 4.43816 5.05618 
2
timestep 3.17
H 5.10802 5.06001 4.994 
H 3.99198 4.43999 5.056 
2
timestep 3.18
H 5.10452 5.05807 4.99419 
H 3.99548 4.44193 5.05581 
2
timestep 3.19
H 5.10082 5.05601 4.9944 
H 3.99918 4.44399 5.0556 
2
timestep 3.2
H 5.09691 5.05384 4.99462 
H 4.00309 4.44616 5.05538 
2
timestep 3.21
H 5.0928 5.05155 4.99484 
H 4.0072 4.44845 5.05516 
2
timestep 3.22
H 5.08847 5.04915 4.99508 
H 4.01153 4.45085 5.05492 
2
timestep 3.23
H 5.08394 5.04663 4.99534 
H 4.01606 4.45337 5.05466 
2
timestep 3.24
H 5.0792 5.044 4.9956 
H 4.0208 4.456 5.0544 
2
timestep 3.25
H 5.07426 5.04125 4.99587 
H 4.02574 4.45875 5.05413 
2
timestep 3.26
H 5.06912 5.0384 4.99616 
H 4.03088 4.4616 5.05384 
2
timestep 3.27
H 5.0638 5.03545 4.99646 
H 4.0362 4.46455 5.05354 
2
timestep 3.28
H 5.05832 5.0324 4.99676 
H 4.04168 4.4676 5.05324 
2
timestep 3.29
H 5.05269 5.02927 4.99707 
H 4.04731 4.47073 5.05293 
2
timestep 3.3
H 5.04696 5.02609 4.99739 
H 4.05304 4.47391 5.05261 
2
timestep 3.31
H 5.04115 5.02286 4.99771 
H 4.05885 4.47714 5.05229 
2
timestep 3.32
H 5.03533 5.01963 4.99804 
H 4.06467 4.48037 5.05196 
2
timestep 3.33
H 5.02957 5.01643 4.99836 
H 4.07043 4.48357 5.05164 
2
timestep 3.34
H 5.02397 5.01331 4.99867 
H 4.07603 4.48669 5.05133 
2
timestep 3.35
H 5.01862 5.01034 4.99897 
H 4.08138 4.48966 5.05103 
2
timestep 3.36
H 5.01366 5.00759 4.99924 
H 4.08634 4.49241 5.05076 
2
timestep 3.37
H 5.00925 5.00514 4.99949 
H 4.09075 4.49486 5.05051 
2
timestep 3.38
H 5.00553 5.00307 4.99969 
H 4.09447 4.49693 5.05031 
2
timestep 3.39
H 5.00267 5.00148 4.99985 
H 4.09733 4.49852 5.05015 
2
timestep 3.4
H 5.0008 5.00045 4.99996 
H 4.0992 4.49955 5.05004 
2
timestep 3.41
H 5.00002 5.00001 5 
H 4.09998 4.49999 5.05 
2
timestep 3.42
H 5.00037 5.00021 4.99998 
H 4.09963 4.49979 5.05002 
2
timestep 3.43
H 5.00183 5.00102 4.9999 
H 4.09817 4.49898 5.0501 
2
timestep 3.44
H 5.00432 5.0024 4.99976 
H 4.09568 4.4976 5.05024 
2
timestep 3.45
H 5.00772 5.00429 4.99957 
H 4.09228 4.49571 5.05043 
2
timestep 3.46
H 5.01189 5.0066 4.99934 
H 4.08811 4.4934 5.05066 
2
timestep 3.47
H 5.01665 5.00925 4.99907 
H 4.08335 4.49075 5.05093 
2
timestep 3.48
H 5.02187 5.01215 4.99879 
H 4.07813 4.48785 5.05121 
2
timestep 3.49
H 5.02739 5.01522 4.99848 
H 4.07261 4.48478 5.05152 
2
timestep 3.5
H 5.0331 5.01839 4.99816 
H 4.0669 4.48161 5.05184 
2
timestep 3.51
H 5.03891 5.02161 4.99784 
H 4.06109 4.47839 5.05216 
2
timestep 3.52
H 5.04472 5.02485 4.99752 
H 4.05528 4.47515 5.05248 
2
timestep 3.53
H 5.05049 5.02805 4.99719 
H 4.04951 4.47195 5.05281 
2
timestep 3.54
H 5.05617 5.0312 4.99688 
H 4.04383 4.4688 5.05312 
2
timestep 3.55
H 5.06171 5.03428 4.99657 
H 4.03829 4.46572 5.05343 
2
timestep 3.56
H 5.06709 5.03727 4.99627 
H 4.03291 4.46273 5.05373 
2
timestep 3.57
H 5.0723 5.04017 4.99598 
H 4.0277 4.45983 5.05402 
2
timestep 3.58
H 5.07732 5.04295 4.9957 
H 4.02268 4.45705 5.0543 
2
timestep 3.59
H 5.08213 5.04563 4.99544 
H 4.01787 4.45437 5.05456 
2
timestep 3.6
H 5.08675 5.04819 4.99518 
H 4.01325 4.45181 5.05482 
2
timestep 3.61
H 5.09116 5.05064 4.99494 
H 4.00884 4.44936 5.05506 
2
timestep 3.62
H 5.09535 5.05297 4.9947 
H 4.00465 4.44703 5.0553 
2
timestep 3.63
H 5.09934 5.05519 4.99448 
H 4.00066 4.44481 5.05552 
2
timestep 3.64
H 5.10312 5.05729 4.99427 
H 3.99688 4.44271 5.05573 
2
timestep 3.65
H 5.10669 5.05927 4.99407 
H 3.99331 4.44073 5.05593 
2
timestep 3.66
H 5.11006 5.06115 4.99389 
H 3.98994 4.43885 5.05611 
2
timestep 3.67
H 5.11323 5.06291 4.99371 
H 3.98677 4.43709 5.05629 
2
timestep 3.68
H 5.1162 5.06455 4.99354 
H 3.9838 4.43545 5.05646 
2
timestep 3.69
H 5.11897 5.06609 4.99339 
H 3.98103 4.43391 5.05661 
2
timestep 3.7
H 5.12155 5.06753 4.99325 
H 3.97845 4.43247 5.05675 
2
timestep 3.71
H 5.12393 5.06885 4.99311 
H 3.97607 4.43115 5.05689 
2
timestep 3.72
H 5.12613 5.07007 4.99299 
H 3.97387 4.42993 5.05701 
2
timestep 3.73
H 5.12813 5.07119 4.99288 
H 3.97187 4.42881 5.05712 
2
timestep 3.74
H 5.12996 5.0722 4.99278 
H 3.97004 4.4278 5.05722 
2
timestep 3.75
H 5.1316 5.07311 4.99269 
H 3.9684 4.42689 5.05731 
2
timestep 3.76
H 5.13306 5.07392 4.99261 
H 3.96694 4.42608 5.05739 
2
timestep 3.77
H 5.13434 5.07464 4.99254 
H 3.96566 4.42536 5.05746 
2
timestep 3.78
H 5.13545 5.07525 4.99248 
H 3.96455 4.42475 5.05752 
2
timestep 3.79
H 5.13638 5.07577 4.99242 
H 3.96362 4.42423 5.05758 
2
timestep 3.8
H 5.13713 5.07618 4.99238 
H 3.96287 4.42382 5.05762 
2
timestep 3.81
H 5.13771 5.07651 4.99235 
H 3.96229 4.42349 5.05765 
2
timestep 3.82
H 5.13811 5.07673 4.99233 
H 3.96189 4.42327 5.05767 
2
timestep 3.83
H 5.13835 5.07686 4.99231 
H 3.96165 4.42314 5.05769 
2
timestep 3.84
H 5.13841 5.07689 4.99231 
H 3.96159 4.42311 5.05769 
2
timestep 3.85
H 5.13829 5.07683 4.99232 
H 3.96171 4.42317 5.05768 
2
timestep 3.86
H 5.13801 5.07667 4.99233 
H 3.96199 4.42333 5.05767 
2
timestep 3.87
H 5.13755 5.07641 4.99236 
H 3.96245 4.42359 5.05764 
2
timestep 3.88
H 5.13691 5.07606 4.99239 
H 3.96309 4.42394 5.05761 
2
timestep 3.89
H 5.1361 5.07561 4.99244 
H 3.9639 4.42439 5.05756 
2
timestep 3.9
H 5.13512 5.07507 4.99249 
H 3.96488 4.42493 5.05751 
2
timestep 3.91
H 5.13396 5.07442 4.99256 
H 3.96604 4.42558 5.05744 
2
timestep 3.92
H 5.13262 5.07368 4.99263 
H 3.96738 4.42632 5.05737 
2
timestep 3.93
H 5.1311 5.07283 4.99272 
H 3.9689 4.42717 5.05728 
2
timestep 3.94
H 5.1294 5.07189 4.99281 
H 3.9706 4.42811 5.05719 
2
timestep 3.95
H 5.12752 5.07084 4.99292 
H 3.97248 4.42916 5.05708 
2
timestep 3.96
H 5.12545 5.0697 4.99303 
H 3.97455 4.4303 5.05697 
2
timestep 3.97
H 5.1232 5.06844 4.99316 
H 3.9768 4.43156 5.05684 
2
timestep 3.98
H 5.12075 5.06708 4.99329 
H 3.97925 4.43292 5.05671 
2
timestep 3.99
H 5.11811 5.06562 4.99344 
H 3.98189 4.43438 5.05656 
2
timestep 4
H 5.11528 5.06404 4.9936 
H 3.98472 4.43596 5.0564 
2
timestep 4.01
H 5.11225 5.06236 4.99376 
H 3.98775 4.43764 5.05624 
2
timestep 4.02
H 5.10902 5.06057 4.99394 
H 3.99098 4.43943 5.05606 
2
timestep 4.03
H 5.10559 5.05866 4.99413 
H 3.99441 4.44134 5.05587 
2
timestep 4.04
H 5.10195 5.05664 4.99434 
H 3.99805 4.44336 5.05566 
2
timestep 4.05
H 5.0981 5.0545 4.99455 
H 4.0019 4.4455 5.05545 
2
timestep 4.06
H 5.09405 5.05225 4.99478 
H 4.00595 4.44775 5.05522 
2
timestep 4.07
H 5.08978 5.04988 4.99501 
H 4.01022 4.45012 5.05499 
2
timestep 4.08
H 5.08531 5.0474 4.99526 
H 4.01469 4.4526 5.05474 
2
timestep 4.09
H 5.08063 5.0448 4.99552 
H 4.01937 4.4552 5.05448 
2
timestep 4.1
H 5.07575 5.04208 4.99579 
H 4.02425 4.45792 5.05421 
2
timestep 4.11
H 5.07067 5.03926 4.99607 
H 4.02933 4.46074 5.05393 
2
timestep 4.12
H 5.06541 5.03634 4.99637 
H 4.03459 4.46366 5.05363 
2
timestep 4.13
H 5.05997 5.03332 4.99667 
H 4.04003 4.46668 5.05333 
2
timestep 4.14
H 5.05438 5.03021 4.99698 
H 4.04562 4.46979 5.05302 
2
timestep 4.15
H 5.04868 5.02704 4.9973 
H 4.05132 4.47296 5.0527 
2
timestep 4.16
H 5.04289 5.02383 4.99762 
H 4.05711 4.47617 5.05238 
2
timestep 4.17
H 5.03707 5.02059 4.99794 
H 4.06293 4.47941 5.05206 
2
timestep 4.18
H 5.03128 5.01738 4.99826 
H 4.06872 4.48262 5.05174 
2
timestep 4.19
H 5.02562 5.01423 4.99858 
H 4.07438 4.48577 5.05142 
2
timestep 4.2
H 5.02018 5.01121 4.99888 
H 4.07982 4.48879 5.05112 
2
timestep 4.21
H 5.01509 5.00838 4.99916 
H 4.08491 4.49162 5.05084 
2
timestep 4.22
H 5.0105 5.00583 4.99942 
H 4.0895 4.49417 5.05058 
2
timestep 4.23
H 5.00656 5.00364 4.99964 
H 4.09344 4.49636 5.05036 
2
timestep 4.24
H 5.00343 5.0019 4.99981 
H 4.09657 4.4981 5.05019 
2
timestep 4.25
H 5.00125 5.00069 4.99993 
H 4.09875 4.49931 5.05007 
2
timestep 4.26
H 5.00014 5.00008 4.99999 
H 4.09986 4.49992 5.05001 
2
timestep 4.27
H 5.00015 5.00008 4.99999 
H 4.09985 4.49992 5.05001 
2
timestep 4.28
H 5.00128 5.00071 4.99993 
H 4.09872 4.49929 5.05007 
2
timestep 4.29
H 5.00348 5.00193 4.99981 
H 4.09652 4.49807 5.05019 
2
timestep 4.3
H 5.00662 5.00368 4.99963 
H 4.09338 4.49632 5.05037 
2
timestep 4.31
H 5.01058 5.00588 4.99941 
H 4.08942 4.49412 5.05059 
2
timestep 4.32
H 5.01518 5.00843 4.99916 
H 4.08482 4.49157 5.05084 
2
timestep 4.33
H 5.02027 5.01126 4.99887 
H 4.07973 4.48874 5.05113 
2
timestep 4.34