4
timestep 0.015
H 9.31629e-22 4.07711e-09 0 
H -0.015 0.999888 0 
H -0.006375 5.36 0 
H 34.75 0.000444 0 
4
timestep 0.03
H -1.90205e-11 1.63084e-08 0 
H -0.0299966 0.99955 0 
H -0.01275 5.35998 0 
H 34.75 0.000888 0 
4
timestep 0.045
H -7.60798e-11 3.66935e-08 0 
H -0.0449865 0.998988 0 
H -0.019125 5.35996 0 
H 34.75 0.001332 0 
4
timestep 0.06
H -1.90192e-10 6.52321e-08 0 
H -0.0599663 0.998201 0 
H -0.0254999 5.35994 0 
H 34.75 0.001776 0 
4
timestep 0.075
H -3.80362e-10 1.01924e-07 0 
H -0.0749325 0.997189 0 
H -0.0318748 5.3599 0 
H 34.75 0.00222 0 
4
timestep 0.09
H -6.6559e-10 1.46767e-07 0 
H -0.0898819 0.995953 0 
H -0.0382497 5.35986 0 
H 34.75 0.002664 0 
4
timestep 0.105
H -1.06486e-09 1.99763e-07 0 
H -0.104811 0.994493 0 
H -0.0446245 5.35981 0 
H 34.75 0.003108 0 
4
timestep 0.12
H -1.59715e-09 2.60908e-07 0 
H -0.119717 0.992809 0 
H -0.0509992 5.35975 0 
H 34.75 0.003552 0 
4
timestep 0.135
H -2.28141e-09 3.30202e-07 0 
H -0.134595 0.990902 0 
H -0.0573739 5.35968 0 
H 34.75 0.003996 0 
4
timestep 0.15
H -3.13658e-09 4.07644e-07 0 
H -0.149444 0.988771 0 
H -0.0637485 5.35961 0 
H 34.75 0.00444 0 
4
timestep 0.165
H -4.18157e-09 4.93233e-07 0 
H -0.164258 0.986419 0 
H -0.070123 5.35953 0 
H 34.75 0.004884 0 
4
timestep 0.18
H -5.43529e-09 5.86965e-07 0 
H -0.179036 0.983844 0 
H -0.0764973 5.35944 0 
H 34.75 0.005328 0 
4
timestep 0.195
H -6.9166e-09 6.8884e-07 0 
H -0.193774 0.981048 0 
H -0.0828716 5.35934 0 
H 34.75 0.005772 0 
4
timestep 0.21
H -8.64435e-09 7.98856e-07 0 
H -0.208468 0.978032 0 
H -0.0892458 5.35923 0 
H 34.75 0.006216 0 
4
timestep 0.225
H -1.06373e-08 9.17011e-07 0 
H -0.223115 0.974795 0 
H -0.0956198 5.35912 0 
H 34.75 0.00666 0 
4
timestep 0.24
H -1.29144e-08 1.0433e-06 0 
H -0.237711 0.971339 0 
H -0.101994 5.359 0 
H 34.75 0.007104 0 
4
timestep 0.255
H -1.54942e-08 1.17772e-06 0 
H -0.252255 0.967664 0 
H -0.108367 5.35887 0 
H 34.75 0.007548 0 
4
timestep 0.27
H -1.83955e-08 1.32028e-06 0 
H -0.266741 0.963772 0 
H -0.114741 5.35873 0 
H 34.75 0.007992 0 
4
timestep 0.285
H -2.16369e-08 1.47096e-06 0 
H -0.281168 0.959663 0 
H -0.121114 5.35859 0 
H 34.75 0.008436 0 
4
timestep 0.3
H -2.52372e-08 1.62977e-06 0 
H -0.295531 0.955338 0 
H -0.127488 5.35843 0 
H 34.75 0.00888 0 
4
timestep 0.315
H -2.92148e-08 1.7967e-06 0 
H -0.309828 0.950798 0 
H -0.133861 5.35827 0 
H 34.75 0.009324 0 
4
timestep 0.33
H -3.35883e-08 1.97175e-06 0 
H -0.324055 0.946044 0 
H -0.140234 5.3581 0 
H 34.75 0.009768 0 
4
timestep 0.345
H -3.83763e-08 2.15492e-06 0 
H -0.338209 0.941077 0 
H -0.146606 5.35793 0 
H 34.75 0.010212 0 
4
timestep 0.36
H -4.35971e-08 2.34619e-06 0 
H -0.352287 0.935899 0 
H -0.152979 5.35774 0 
H 34.7499 0.010656 0 
4
timestep 0.375
H -4.92692e-08 2.54558e-06 0 
H -0.366286 0.93051 0 
H -0.159351 5.35755 0 
H 34.7499 0.0111 0 
4
timestep 0.39
H -5.54109e-08 2.75307e-06 0 
H -0.380202 0.924912 0 
H -0.165723 5.35735 0 
H 34.7499 0.011544 0 
4
timestep 0.405
H -6.20405e-08 2.96865e-06 0 
H -0.394033 0.919105 0 
H -0.172094 5.35715 0 
H 34.7499 0.011988 0 
4
timestep 0.42
H -6.91762e-08 3.19234e-06 0 
H -0.407776 0.913092 0 
H -0.178466 5.35693 0 
H 34.7499 0.012432 0 
4
timestep 0.435
H -7.68362e-08 3.42412e-06 0 
H -0.421426 0.906873 0 
H -0.184837 5.35671 0 
H 34.7499 0.012876 0 
4
timestep 0.45
H -8.50386e-08 3.66398e-06 0 
H -0.434982 0.900451 0 
H -0.191208 5.35648 0 
H 34.7499 0.01332 0 
4
timestep 0.465
H -9.38014e-08 3.91193e-06 0 
H -0.448439 0.893825 0 
H -0.197579 5.35624 0 
H 34.7499 0.013764 0 
4
timestep 0.48
H -1.03143e-07 4.16795e-06 0 
H -0.461796 0.886999 0 
H -0.203949 5.35599 0 
H 34.7499 0.014208 0 
4
timestep 0.495
H -1.1308e-07 4.43205e-06 0 
H -0.475049 0.879973 0 
H -0.210319 5.35574 0 
H 34.7499 0.014652 0 
4
timestep 0.51
H -1.23632e-07 4.70421e-06 0 
H -0.488195 0.872749 0 
H -0.216689 5.35547 0 
H 34.7499 0.015096 0 
4
timestep 0.525
H -1.34815e-07 4.98444e-06 0 
H -0.501231 0.865329 0 
H -0.223058 5.3552 0 
H 34.7499 0.01554 0 
4
timestep 0.54
H -1.46649e-07 5.27272e-06 0 
H -0.514155 0.857714 0 
H -0.229428 5.35493 0 
H 34.7499 0.015984 0 
4
timestep 0.555
H -1.59149e-07 5.56906e-06 0 
H -0.526963 0.849906 0 
H -0.235796 5.35464 0 
H 34.7499 0.016428 0 
4
timestep 0.57
H -1.72334e-07 5.87344e-06 0 
H -0.539652 0.841907 0 
H -0.242165 5.35435 0 
H 34.7499 0.016872 0 
4
timestep 0.585
H -1.86221e-07 6.18587e-06 0 
H -0.55222 0.833718 0 
H -0.248533 5.35405 0 
H 34.7499 0.017316 0 
4
timestep 0.6
H -2.00828e-07 6.50632e-06 0 
H -0.564663 0.825342 0 
H -0.254901 5.35374 0 
H 34.7499 0.01776 0 
4
timestep 0.615
H -2.16172e-07 6.83481e-06 0 
H -0.57698 0.816781 0 
H -0.261268 5.35342 0 
H 34.7498 0.018204 0 
4
timestep 0.63
H -2.3227e-07 7.17132e-06 0 
H -0.589166 0.808035 0 
H -0.267635 5.35309 0 
H 34.7498 0.018648 0 
4
timestep 0.645
H -2.49139e-07 7.51584e-06 0 
H -0.60122 0.799108 0 
H -0.274002 5.35276 0 
H 34.7498 0.019092 0 
4
timestep 0.66
H -2.66796e-07 7.86838e-06 0 
H -0.613139 0.790001 0 
H -0.280368 5.35242 0 
H 34.7498 0.019536 0 
4
timestep 0.675
H -2.85258e-07 8.22891e-06 0 
H -0.62492 0.780716 0 
H -0.286734 5.35207 0 
H 34.7498 0.01998 0 
4
timestep 0.69
H -3.04543e-07 8.59745e-06 0 
H -0.636561 0.771255 0 
H -0.293099 5.35172 0 
H 34.7498 0.020424 0 
4
timestep 0.705
H -3.24666e-07 8.97397e-06 0 
H -0.648058 0.761621 0 
H -0.299464 5.35135 0 
H 34.7498 0.020868 0 
4
timestep 0.72
H -3.45644e-07 9.35847e-06 0 
H -0.659409 0.751816 0 
H -0.305828 5.35098 0 
H 34.7498 0.021312 0 
4
timestep 0.735
H -3.67494e-07 9.75095e-06 0 
H -0.670612 0.741841 0 
H -0.312192 5.3506 0 
H 34.7498 0.021756 0 
4
timestep 0.75
H -3.90233e-07 1.01514e-05 0 
H -0.681664 0.7317 0 
H -0.318556 5.35021 0 
H 34.7498 0.0222 0 
4
timestep 0.765
H -4.13876e-07 1.05598e-05 0 
H -0.692562 0.721394 0 
H -0.324919 5.34982 0 
H 34.7498 0.022644 0 
4
timestep 0.78
H -4.3844e-07 1.09762e-05 0 
H -0.703305 0.710926 0 
H -0.331282 5.34941 0 
H 34.7497 0.023088 0 
4
timestep 0.795
H -4.63942e-07 1.14005e-05 0 
H -0.71389 0.700298 0 
H -0.337644 5.349 0 
H 34.7497 0.023532 0 
4
timestep 0.81
H -4.90396e-07 1.18327e-05 0 
H -0.724314 0.689512 0 
H -0.344006 5.34859 0 
H 34.7497 0.023976 0 
4
timestep 0.825
H -5.17819e-07 1.22729e-05 0 
H -0.734575 0.678571 0 
H -0.350367 5.34816 0 
H 34.7497 0.02442 0 
4
timestep 0.84
H -5.46227e-07 1.2721e-05 0 
H -0.744671 0.667477 0 
H -0.356727 5.34772 0 
H 34.7497 0.024864 0 
4
timestep 0.855
H -5.75636e-07 1.3177e-05 0 
H -0.754599 0.656234 0 
H -0.363088 5.34728 0 
H 34.7497 0.025308 0 
4
timestep 0.87
H -6.06061e-07 1.36409e-05 0 
H -0.764357 0.644842 0 
H -0.369447 5.34683 0 
H 34.7497 0.025752 0 
4
timestep 0.885
H -6.37517e-07 1.41127e-05 0 
H -0.773944 0.633306 0 
H -0.375806 5.34637 0 
H 34.7497 0.026196 0 
4
timestep 0.9
H -6.7002e-07 1.45925e-05 0 
H -0.783356 0.621627 0 
H -0.382165 5.34591 0 
H 34.7497 0.02664 0 
4
timestep 0.915
H -7.03585e-07 1.508e-05 0 
H -0.792592 0.609808 0 
H -0.388523 5.34544 0 
H 34.7497 0.027084 0 
4
timestep 0.93
H -7.38228e-07 1.55755e-05 0 
H -0.80165 0.597853 0 
H -0.39488 5.34495 0 
H 34.7496 0.027528 0 
4
timestep 0.945
H -7.73963e-07 1.60788e-05 0 
H -0.810528 0.585762 0 
H -0.401237 5.34446 0 
H 34.7496 0.027972 0 
4
timestep 0.96
H -8.10804e-07 1.659e-05 0 
H -0.819223 0.57354 0 
H -0.407593 5.34397 0 
H 34.7496 0.0284159 0 
4
timestep 0.975
H -8.48768e-07 1.7109e-05 0 
H -0.827733 0.561189 0 
H -0.413949 5.34346 0 
H 34.7496 0.0288599 0 
4
timestep 0.99
H -8.87868e-07 1.76359e-05 0 
H -0.836058 0.548711 0 
H -0.420304 5.34295 0 
H 34.7496 0.0293039 0 
4
timestep 1.005
H -9.28119e-07 1.81706e-05 0 
H -0.844194 0.536111 0 
H -0.426658 5.34243 0 
H 34.7496 0.0297479 0 
4
timestep 1.02
H -9.69536e-07 1.87131e-05 0 
H -0.852141 0.523389 0 
H -0.433012 5.3419 0 
H 34.7496 0.0301919 0 
4
timestep 1.035
H -1.01213e-06 1.92634e-05 0 
H -0.859896 0.51055 0 
H -0.439365 5.34137 0 
H 34.7496 0.0306359 0 
4
timestep 1.05
H -1.05592e-06 1.98215e-05 0 
H -0.867457 0.497596 0 
H -0.445718 5.34082 0 
H 34.7495 0.0310799 0 
4
timestep 1.065
H -1.10092e-06 2.03874e-05 0 
H -0.874823 0.48453 0 
H -0.45207 5.34027 0 
H 34.7495 0.0315239 0 
4
timestep 1.08
H -1.14714e-06 2.09611e-05 0 
H -0.881993 0.471355 0 
H -0.458421 5.33971 0 
H 34.7495 0.0319679 0 
4
timestep 1.095
H -1.19459e-06 2.15426e-05 0 
H -0.888963 0.458074 0 
H -0.464771 5.33914 0 
H 34.7495 0.0324119 0 
4
timestep 1.11
H -1.24329e-06 2.21318e-05 0 
H -0.895734 0.44469 0 
H -0.471121 5.33857 0 
H 34.7495 0.0328559 0 
4
timestep 1.125
H -1.29326e-06 2.27288e-05 0 
H -0.902304 0.431206 0 
H -0.47747 5.33799 0 
H 34.7495 0.0332999 0 
4
timestep 1.14
H -1.3445e-06 2.33335e-05 0 
H -0.90867 0.417625 0 
H -0.483819 5.3374 0 
H 34.7495 0.0337439 0 
4
timestep 1.155
H -1.39703e-06 2.3946e-05 0 
H -0.914832 0.40395 0 
H -0.490167 5.3368 0 
H 34.7494 0.0341879 0 
4
timestep 1.17
H -1.45086e-06 2.45661e-05 0 
H -0.920788 0.390184 0 
H -0.496514 5.33619 0 
H 34.7494 0.0346319 0 
4
timestep 1.185
H -1.50601e-06 2.5194e-05 0 
H -0.926537 0.37633 0 
H -0.50286 5.33558 0 
H 34.7494 0.0350759 0 
4
timestep 1.2
H -1.56248e-06 2.58296e-05 0 
H -0.932078 0.362392 0 
H -0.509206 5.33496 0 
H 34.7494 0.0355199 0 
4
timestep 1.215
H -1.62029e-06 2.64729e-05 0 
H -0.937409 0.348372 0 
H -0.51555 5.33433 0 
H 34.7494 0.0359639 0 
4
timestep 1.23
H -1.67946e-06 2.71239e-05 0 
H -0.942529 0.334274 0 
H -0.521894 5.33369 0 
H 34.7494 0.0364079 0 
4
timestep 1.245
H -1.73999e-06 2.77825e-05 0 
H -0.947437 0.3201 0 
H -0.528238 5.33304 0 
H 34.7494 0.0368519 0 
4
timestep 1.26
H -1.80189e-06 2.84488e-05 0 
H -0.952131 0.305855 0 
H -0.53458 5.33239 0 
H 34.7493 0.0372959 0 
4
timestep 1.275
H -1.86519e-06 2.91227e-05 0 
H -0.956612 0.291541 0 
H -0.540922 5.33173 0 
H 34.7493 0.0377399 0 
4
timestep 1.29
H -1.92988e-06 2.98043e-05 0 
H -0.960877 0.277161 0 
H -0.547263 5.33106 0 
H 34.7493 0.0381838 0 
4
timestep 1.305
H -1.99599e-06 3.04935e-05 0 
H -0.964927 0.262719 0 
H -0.553603 5.33039 0 
H 34.7493 0.0386278 0 
4
timestep 1.32
H -2.06353e-06 3.11904e-05 0 
H -0.968759 0.248218 0 
H -0.559943 5.3297 0 
H 34.7493 0.0390718 0 
4
timestep 1.335
H -2.1325e-06 3.18948e-05 0 
H -0.972373 0.233661 0 
H -0.566281 5.32901 0 
H 34.7493 0.0395158 0 
4
timestep 1.35
H -2.20291e-06 3.26069e-05 0 
H -0.975768 0.219051 0 
H -0.572619 5.32831 0 
H 34.7492 0.0399598 0 
4
timestep 1.365
H -2.27478e-06 3.33265e-05 0 
H -0.978944 0.204393 0 
H -0.578956 5.3276 0 
H 34.7492 0.0404038 0 
4
timestep 1.38
H -2.34813e-06 3.40537e-05 0 
H -0.9819 0.189688 0 
H -0.585292 5.32689 0 
H 34.7492 0.0408478 0 
4
timestep 1.395
H -2.42295e-06 3.47885e-05 0 
H -0.984635 0.17494 0 
H -0.591627 5.32616 0 
H 34.7492 0.0412918 0 
4
timestep 1.41
H -2.49926e-06 3.55308e-05 0 
H -0.987148 0.160154 0 
H -0.597961 5.32543 0 
H 34.7492 0.0417358 0 
4
timestep 1.425
H -2.57708e-06 3.62807e-05 0 
H -0.989439 0.145331 0 
H -0.604295 5.32469 0 
H 34.7492 0.0421798 0 
4
timestep 1.44
H -2.6564e-06 3.70381e-05 0 
H -0.991508 0.130475 0 
H -0.610627 5.32395 0 
H 34.7491 0.0426238 0 
4
timestep 1.455
H -2.73725e-06 3.7803e-05 0 
H -0.993353 0.115591 0 
H -0.616959 5.32319 0 
H 34.7491 0.0430678 0 
4
timestep 1.47
H -2.81963e-06 3.85754e-05 0 
H -0.994975 0.10068 0 
H -0.62329 5.32243 0 
H 34.7491 0.0435118 0 
4
timestep 1.485
H -2.90355e-06 3.93554e-05 0 
H -0.996374 0.0857464 0 
H -0.62962 5.32166 0 
H 34.7491 0.0439557 0 
4
timestep 1.5
H -2.98902e-06 4.01428e-05 0 
H -0.997548 0.0707938 0 
H -0.635949 5.32088 0 
H 34.7491 0.0443997 0 
4
timestep 1.515
H -3.07606e-06 4.09377e-05 0 
H -0.998497 0.0558251 0 
H -0.642277 5.3201 0 
H 34.749 0.0448437 0 
4
timestep 1.53
H -3.16466e-06 4.17401e-05 0 
H -0.999222 0.040844 0 
H -0.648604 5.31931 0 
H 34.749 0.0452877 0 
4
timestep 1.545
H -3.25485e-06 4.25499e-05 0 
H -0.999723 0.0258537 0 
H -0.65493 5.31851 0 
H 34.749 0.0457317 0 
4
timestep 1.56
H -3.34662e-06 4.33672e-05 0 
H -0.999998 0.0108576 0 
H -0.661255 5.3177 0 
H 34.749 0.0461757 0 
4
timestep 1.575
H -3.44e-06 4.41919e-05 0 
H -1.00005 -0.00414096 0 
H -0.667579 5.31688 0 
H 34.749 0.0466197 0 
4
timestep 1.59
H -3.53498e-06 4.5024e-05 0 
H -0.999874 -0.0191385 0 
H -0.673902 5.31606 0 
H 34.749 0.0470637 0 
4
timestep 1.605
H -3.63157e-06 4.58635e-05 0 
H -0.999474 -0.0341318 0 
H -0.680224 5.31522 0 
H 34.7489 0.0475077 0 
4
timestep 1.62
H -3.72979e-06 4.67105e-05 0 
H -0.99885 -0.0491174 0 
H -0.686546 5.31438 0 
H 34.7489 0.0479517 0 
4
timestep 1.635
H -3.82965e-06 4.75648e-05 0 
H -0.998001 -0.0640919 0 
H -0.692866 5.31354 0 
H 34.7489 0.0483956 0 
4
timestep 1.65
H -3.93114e-06 4.84265e-05 0 
H -0.996927 -0.079052 0 
H -0.699185 5.31268 0 
H 34.7489 0.0488396 0 
4
timestep 1.665
H -4.03428e-06 4.92955e-05 0 
H -0.995629 -0.0939942 0 
H -0.705503 5.31182 0 
H 34.7489 0.0492836 0 
4
timestep 1.68
H -4.13908e-06 5.0172e-05 0 
H -0.994107 -0.108915 0 
H -0.711821 5.31095 0 
H 34.7488 0.0497276 0 
4
timestep 1.695
H -4.24555e-06 5.10557e-05 0 
H -0.992362 -0.123812 0 
H -0.718137 5.31007 0 
H 34.7488 0.0501716 0 
4
timestep 1.71
H -4.35369e-06 5.19468e-05 0 
H -0.990393 -0.138681 0 
H -0.724452 5.30918 0 
H 34.7488 0.0506156 0 
4
timestep 1.725
H -4.46351e-06 5.28453e-05 0 
H -0.988202 -0.153518 0 
H -0.730766 5.30829 0 
H 34.7488 0.0510596 0 
4
timestep 1.74
H -4.57501e-06 5.3751e-05 0 
H -0.985788 -0.168321 0 
H -0.737079 5.30739 0 
H 34.7487 0.0515036 0 
4
timestep 1.755
H -4.68821e-06 5.4664e-05 0 
H -0.983152 -0.183086 0 
H -0.743391 5.30648 0 
H 34.7487 0.0519475 0 
4
timestep 1.77
H -4.80312e-06 5.55843e-05 0 
H -0.980296 -0.19781 0 
H -0.749701 5.30556 0 
H 34.7487 0.0523915 0 
4
timestep 1.785
H -4.91973e-06 5.65119e-05 0 
H -0.977218 -0.212489 0 
H -0.756011 5.30463 0 
H 34.7487 0.0528355 0 
4
timestep 1.8
H -5.03806e-06 5.74468e-05 0 
H -0.973921 -0.227121 0 
H -0.76232 5.3037 0 
H 34.7487 0.0532795 0 
4
timestep 1.815
H -5.15811e-06 5.83889e-05 0 
H -0.970405 -0.241701 0 
H -0.768627 5.30276 0 
H 34.7486 0.0537235 0 
4
timestep 1.83
H -5.27988e-06 5.93383e-05 0 
H -0.96667 -0.256227 0 
H -0.774933 5.30181 0 
H 34.7486 0.0541675 0 
4
timestep 1.845
H -5.4034e-06 6.02949e-05 0 
H -0.962718 -0.270696 0 
H -0.781239 5.30086 0 
H 34.7486 0.0546115 0 
4
timestep 1.86
H -5.52865e-06 6.12587e-05 0 
H -0.95855 -0.285103 0 
H -0.787543 5.29989 0 
H 34.7486 0.0550554 0 
4
timestep 1.875
H -5.65565e-06 6.22297e-05 0 
H -0.954166 -0.299446 0 
H -0.793846 5.29892 0 
H 34.7485 0.0554994 0 
4
timestep 1.89
H -5.7844e-06 6.32079e-05 0 
H -0.949567 -0.313722 0 
H -0.800147 5.29794 0 
H 34.7485 0.0559434 0 
4
timestep 1.905
H -5.91492e-06 6.41933e-05 0 
H -0.944755 -0.327927 0 
H -0.806448 5.29695 0 
H 34.7485 0.0563874 0 
4
timestep 1.92
H -6.04719e-06 6.51859e-05 0 
H -0.93973 -0.342059 0 
H -0.812747 5.29596 0 
H 34.7485 0.0568314 0 
4
timestep 1.935
H -6.18124e-06 6.61857e-05 0 
H -0.934493 -0.356113 0 
H -0.819045 5.29496 0 
H 34.7484 0.0572754 0 
4
timestep 1.95
H -6.31706e-06 6.71926e-05 0 
H -0.929047 -0.370088 0 
H -0.825342 5.29395 0 
H 34.7484 0.0577193 0 
4
timestep 1.965
H -6.45466e-06 6.82067e-05 0 
H -0.923391 -0.383979 0 
H -0.831638 5.29293 0 
H 34.7484 0.0581633 0 
4
timestep 1.98
H -6.59405e-06 6.92279e-05 0 
H -0.917528 -0.397784 0 
H -0.837933 5.2919 0 
H 34.7484 0.0586073 0 
4
timestep 1.995
H -6.73522e-06 7.02562e-05 0 
H -0.911458 -0.411499 0 
H -0.844226 5.29087 0 
H 34.7484 0.0590513 0 
4
timestep 2.01
H -6.87819e-06 7.12916e-05 0 
H -0.905184 -0.425122 0 
H -0.850518 5.28983 0 
H 34.7483 0.0594953 0 
4
timestep 2.025
H -7.02296e-06 7.23342e-05 0 
H -0.898705 -0.438648 0 
H -0.856809 5.28878 0 
H 34.7483 0.0599393 0 
4
timestep 2.04
H -7.16954e-06 7.33838e-05 0 
H -0.892025 -0.452077 0 
H -0.863099 5.28772 0 
H 34.7483 0.0603832 0 
4
timestep 2.055
H -7.31792e-06 7.44405e-05 0 
H -0.885144 -0.465403 0 
H -0.869387 5.28666 0 
H 34.7482 0.0608272 0 
4
timestep 2.07
H -7.46811e-06 7.55043e-05 0 
H -0.878063 -0.478625 0 
H -0.875674 5.28558 0 
H 34.7482 0.0612712 0 
4
timestep 2.085
H -7.62012e-06 7.65752e-05 0 
H -0.870785 -0.491739 0 
H -0.88196 5.2845 0 
H 34.7482 0.0617152 0 
4
timestep 2.1
H -7.77395e-06 7.76531e-05 0 
H -0.863312 -0.504743 0 
H -0.888245 5.28341 0 
H 34.7482 0.0621592 0 
4
timestep 2.115
H -7.9296e-06 7.8738e-05 0 
H -0.855644 -0.517633 0 
H -0.894528 5.28232 0 
H 34.7481 0.0626031 0 
4
timestep 2.13
H -8.08708e-06 7.983e-05 0 
H -0.847783 -0.530406 0 
H -0.90081 5.28122 0 
H 34.7481 0.0630471 0 
4
timestep 2.145
H -8.2464e-06 8.0929e-05 0 
H -0.839732 -0.54306 0 
H -0.90709 5.2801 0 
H 34.7481 0.0634911 0 
4
timestep 2.16
H -8.40754e-06 8.2035e-05 0 
H -0.831492 -0.555592 0 
H -0.91337 5.27899 0 
H 34.7481 0.0639351 0 
4
timestep 2.175
H -8.57052e-06 8.3148e-05 0 
H -0.823065 -0.567999 0 
H -0.919648 5.27786 0 
H 34.748 0.0643791 0 
4
timestep 2.19
H -8.73535e-06 8.4268e-05 0 
H -0.814453 -0.580278 0 
H -0.925924 5.27673 0 
H 34.748 0.064823 0 
4
timestep 2.205
H -8.90202e-06 8.5395e-05 0 
H -0.805658 -0.592427 0 
H -0.932199 5.27558 0 
H 34.748 0.065267 0 
4
timestep 2.22
H -9.07053e-06 8.6529e-05 0 
H -0.796681 -0.604442 0 
H -0.938473 5.27443 0 
H 34.748 0.065711 0 
4
timestep 2.235
H -9.24089e-06 8.76699e-05 0 
H -0.787525 -0.616321 0 
H -0.944746 5.27328 0 
H 34.7479 0.066155 0 
4
timestep 2.25
H -9.41311e-06 8.88178e-05 0 
H -0.778192 -0.628062 0 
H -0.951017 5.27211 0 
H 34.7479 0.066599 0 
4
timestep 2.265
H -9.58718e-06 8.99726e-05 0 
H -0.768684 -0.639661 0 
H -0.957287 5.27094 0 
H 34.7479 0.0670429 0 
4
timestep 2.28
H -9.7631e-06 9.11344e-05 0 
H -0.759003 -0.651117 0 
H -0.963555 5.26976 0 
H 34.7478 0.0674869 0 
4
timestep 2.295
H -9.94089e-06 9.23031e-05 0 
H -0.749152 -0.662426 0 
H -0.969822 5.26857 0 
H 34.7478 0.0679309 0 
4
timestep 2.31
H -1.01205e-05 9.34787e-05 0 
H -0.739132 -0.673585 0 
H -0.976087 5.26737 0 
H 34.7478 0.0683749 0 
4
timestep 2.325
H -1.0302e-05 9.46612e-05 0 
H -0.728945 -0.684594 0 
H -0.982351 5.26617 0 
H 34.7478 0.0688188 0 
4
timestep 2.34
H -1.04854e-05 9.58506e-05 0 
H -0.718595 -0.695448 0 
H -0.988614 5.26496 0 
H 34.7477 0.0692628 0 
4
timestep 2.355
H -1.06707e-05 9.70469e-05 0 
H -0.708083 -0.706146 0 
H -0.994875 5.26374 0 
H 34.7477 0.0697068 0 
4
timestep 2.37
H -1.08578e-05 9.82501e-05 0 
H -0.697411 -0.716685 0 
H -1.00113 5.26251 0 
H 34.7477 0.0701508 0 
4
timestep 2.385
H -1.10467e-05 9.94601e-05 0 
H -0.686583 -0.727062 0 
H -1.00739 5.26128 0 
H 34.7476 0.0705947 0 
4
timestep 2.4
H -1.12376e-05 0.000100677 0 
H -0.6756 -0.737276 0 
H -1.01365 5.26004 0 
H 34.7476 0.0710387 0 
4
timestep 2.415
H -1.14303e-05 0.000101901 0 
H -0.664466 -0.747325 0 
H -1.01991 5.25879 0 
H 34.7476 0.0714827 0 
4
timestep 2.43
H -1.16249e-05 0.000103131 0 
H -0.653181 -0.757205 0 
H -1.02616 5.25753 0 
H 34.7476 0.0719266 0 
4
timestep 2.445
H -1.18214e-05 0.000104369 0 
H -0.64175 -0.766914 0 
H -1.03241 5.25626 0 
H 34.7475 0.0723706 0 
4
timestep 2.46
H -1.20197e-05 0.000105613 0 
H -0.630175 -0.776452 0 
H -1.03866 5.25499 0 
H 34.7475 0.0728146 0 
4
timestep 2.475
H -1.222e-05 0.000106864 0 
H -0.618458 -0.785814 0 
H -1.04491 5.25371 0 
H 34.7475 0.0732586 0 
4
timestep 2.49
H -1.24221e-05 0.000108122 0 
H -0.606601 -0.795 0 
H -1.05116 5.25242 0 
H 34.7474 0.0737025 0 
4
timestep 2.505
H -1.26261e-05 0.000109387 0 
H -0.594609 -0.804007 0 
H -1.05741 5.25113 0 
H 34.7474 0.0741465 0 
4
timestep 2.52
H -1.28319e-05 0.000110658 0 
H -0.582482 -0.812833 0 
H -1.06365 5.24982 0 
H 34.7474 0.0745905 0 
4
timestep 2.535
H -1.30397e-05 0.000111937 0 
H -0.570225 -0.821476 0 
H -1.06989 5.24851 0 
H 34.7473 0.0750345 0 
4
timestep 2.55
H -1.32493e-05 0.000113222 0 
H -0.557839 -0.829934 0 
H -1.07613 5.24719 0 
H 34.7473 0.0754784 0 
4
timestep 2.565
H -1.34608e-05 0.000114514 0 
H -0.545327 -0.838205 0 
H -1.08237 5.24586 0 
H 34.7473 0.0759224 0 
4
timestep 2.58
H -1.36742e-05 0.000115812 0 
H -0.532693 -0.846288 0 
H -1.08861 5.24453 0 
H 34.7472 0.0763664 0 
4
timestep 2.595
H -1.38895e-05 0.000117118 0 
H -0.51994 -0.854181 0 
H -1.09485 5.24319 0 
H 34.7472 0.0768103 0 
4
timestep 2.61
H -1.41066e-05 0.00011843 0 
H -0.507069 -0.861881 0 
H -1.10108 5.24184 0 
H 34.7472 0.0772543 0 
4
timestep 2.625
H -1.43257e-05 0.000119749 0 
H -0.494084 -0.869387 0 
H -1.10732 5.24048 0 
H 34.7471 0.0776983 0 
4
timestep 2.64
H -1.45466e-05 0.000121075 0 
H -0.480988 -0.876698 0 
H -1.11355 5.23912 0 
H 34.7471 0.0781422 0 
4
timestep 2.655
H -1.47694e-05 0.000122407 0 
H -0.467784 -0.883812 0 
H -1.11978 5.23774 0 
H 34.7471 0.0785862 0 
4
timestep 2.67
H -1.4994e-05 0.000123746 0 
H -0.454475 -0.890726 0 
H -1.12601 5.23636 0 
H 34.747 0.0790302 0 
4
timestep 2.685
H -1.52206e-05 0.000125092 0 
H -0.441063 -0.897441 0 
H -1.13224 5.23497 0 
H 34.747 0.0794741 0 
4
timestep 2.7
H -1.5449e-05 0.000126445 0 
H -0.427552 -0.903953 0 
H -1.13846 5.23358 0 
H 34.747 0.0799181 0 
4
timestep 2.715
H -1.56794e-05 0.000127804 0 
H -0.413945 -0.910262 0 
H -1.14469 5.23217 0 
H 34.7469 0.0803621 0 
4
timestep 2.73
H -1.59116e-05 0.00012917 0 
H -0.400245 -0.916366 0 
H -1.15091 5.23076 0 
H 34.7469 0.080806 0 
4
timestep 2.745
H -1.61457e-05 0.000130542 0 
H -0.386455 -0.922264 0 
H -1.15713 5.22934 0 
H 34.7469 0.08125 0 
4
timestep 2.76
H -1.63816e-05 0.000131922 0 
H -0.372578 -0.927955 0 
H -1.16335 5.22792 0 
H 34.7468 0.081694 0 
4
timestep 2.775
H -1.66195e-05 0.000133308 0 
H -0.358617 -0.933437 0 
H -1.16956 5.22648 0 
H 34.7468 0.0821379 0 
4
timestep 2.79
H -1.68592e-05 0.000134701 0 
H -0.344576 -0.938709 0 
H -1.17578 5.22504 0 
H 34.7468 0.0825819 0 
4
timestep 2.805
H -1.71008e-05 0.0001361 0 
H -0.330457 -0.943769 0 
H -1.18199 5.22359 0 
H 34.7467 0.0830259 0 
4
timestep 2.82
H -1.73442e-05 0.000137506 0 
H -0.316263 -0.948617 0 
H -1.1882 5.22214 0 
H 34.7467 0.0834698 0 
4
timestep 2.835
H -1.75896e-05 0.000138919 0 
H -0.301999 -0.953252 0 
H -1.19441 5.22067 0 
H 34.7467 0.0839138 0 
4
timestep 2.85
H -1.78368e-05 0.000140338 0 
H -0.287666 -0.957672 0 
H -1.20062 5.2192 0 
H 34.7466 0.0843577 0 
4
timestep 2.865
H -1.80859e-05 0.000141764 0 
H -0.273269 -0.961877 0 
H -1.20683 5.21772 0 
H 34.7466 0.0848017 0 
4
timestep 2.88
H -1.83369e-05 0.000143197 0 
H -0.258811 -0.965866 0 
H -1.21303 5.21623 0 
H 34.7466 0.0852457 0 
4
timestep 2.895
H -1.85897e-05 0.000144636 0 
H -0.244294 -0.969637 0 
H -1.21924 5.21474 0 
H 34.7465 0.0856896 0 
4
timestep 2.91
H -1.88444e-05 0.000146082 0 
H -0.229722 -0.97319 0 
H -1.22544 5.21323 0 
H 34.7465 0.0861336 0 
4
timestep 2.925
H -1.9101e-05 0.000147535 0 
H -0.215099 -0.976524 0 
H -1.23164 5.21172 0 
H 34.7465 0.0865775 0 
4
timestep 2.94
H -1.93595e-05 0.000148994 0 
H -0.200427 -0.979638 0 
H -1.23783 5.2102 0 
H 34.7464 0.0870215 0 
4
timestep 2.955
H -1.96198e-05 0.00015046 0 
H -0.18571 -0.982532 0 
H -1.24403 5.20868 0 
H 34.7464 0.0874655 0 
4
timestep 2.97
H -1.9882e-05 0.000151933 0 
H -0.170951 -0.985205 0 
H -1.25022 5.20714 0 
H 34.7463 0.0879094 0 
4
timestep 2.985
H -2.0146e-05 0.000153412 0 
H -0.156154 -0.987656 0 
H -1.25642 5.2056 0 
H 34.7463 0.0883534 0 
4
timestep 3
H -2.04119e-05 0.000154898 0 
H -0.141322 -0.989885 0 
H -1.26261 5.20405 0 
H 34.7463 0.0887973 0 
4
timestep 3.015
H -2.06797e-05 0.00015639 0 
H -0.126458 -0.991891 0 
H -1.26879 5.2025 0 
H 34.7462 0.0892413 0 
4
timestep 3.03
H -2.09493e-05 0.000157889 0 
H -0.111565 -0.993674 0 
H -1.27498 5.20093 0 
H 34.7462 0.0896852 0 
4
timestep 3.045
H -2.12208e-05 0.000159395 0 
H -0.0966477 -0.995234 0 
H -1.28117 5.19936 0 
H 34.7462 0.0901292 0 
4
timestep 3.06
H -2.14942e-05 0.000160907 0 
H -0.0817084 -0.996569 0 
H -1.28735 5.19778 0 
H 34.7461 0.0905732 0 
4
timestep 3.075
H -2.17694e-05 0.000162426 0 
H -0.0667507 -0.997681 0 
H -1.29353 5.1962 0 
H 34.7461 0.0910171 0 
4
timestep 3.09
H -2.20465e-05 0.000163951 0 
H -0.051778 -0.998568 0 
H -1.29971 5.1946 0 
H 34.746 0.0914611 0 
4
timestep 3.105
H -2.23254e-05 0.000165483 0 
H -0.0367937 -0.99923 0 
H -1.30589 5.193 0 
H 34.746 0.091905 0 
4
timestep 3.12
H -2.26061e-05 0.000167021 0 
H -0.0218011 -0.999667 0 
H -1.31206 5.19139 0 
H 34.746 0.092349 0 
4
timestep 3.135
H -2.28888e-05 0.000168567 0 
H -0.00680363 -0.99988 0 
H -1.31823 5.18977 0 
H 34.7459 0.0927929 0 
4
timestep 3.15
H -2.31732e-05 0.000170118 0 
H 0.00819539 -0.999867 0 
H -1.32441 5.18815 0 
H 34.7459 0.0932369 0 
4
timestep 3.165
H -2.34596e-05 0.000171677 0 
H 0.0231926 -0.99963 0 
H -1.33058 5.18652 0 
H 34.7458 0.0936808 0 
4
timestep 3.18
H -2.37477e-05 0.000173242 0 
H 0.0381845 -0.999168 0 
H -1.33674 5.18488 0 
H 34.7458 0.0941248 0 
4
timestep 3.195
H -2.40377e-05 0.000174813 0 
H 0.0531679 -0.99848 0 
H -1.34291 5.18323 0 
H 34.7458 0.0945687 0 
4
timestep 3.21
H -2.43296e-05 0.000176391 0 
H 0.0681392 -0.997569 0 
H -1.34907 5.18157 0 
H 34.7457 0.0950127 0 
4
timestep 3.225
H -2.46233e-05 0.000177976 0 
H 0.0830953 -0.996432 0 
H -1.35523 5.17991 0 
H 34.7457 0.0954566 0 
4
timestep 3.24
H -2.49188e-05 0.000179567 0 
H 0.0980326 -0.995072 0 
H -1.36139 5.17824 0 
H 34.7456 0.0959006 0 
4
timestep 3.255
H -2.52162e-05 0.000181165 0 
H 0.112948 -0.993487 0 
H -1.36755 5.17656 0 
H 34.7456 0.0963445 0 
4
timestep 3.27
H -2.55154e-05 0.00018277 0 
H 0.127838 -0.99168 0 
H -1.37371 5.17487 0 
H 34.7456 0.0967885 0 
4
timestep 3.285
H -2.58165e-05 0.000184381 0 
H 0.142699 -0.989649 0 
H -1.37986 5.17318 0 
H 34.7455 0.0972324 0 
4
timestep 3.3
H -2.61194e-05 0.000185998 0 
H 0.157528 -0.987395 0 
H -1.38601 5.17148 0 
H 34.7455 0.0976764 0 
4
timestep 3.315
H -2.64241e-05 0.000187622 0 
H 0.172321 -0.984919 0 
H -1.39216 5.16977 0 
H 34.7454 0.0981203 0 
4
timestep 3.33
H -2.67307e-05 0.000189253 0 
H 0.187076 -0.982222 0 
H -1.39831 5.16806 0 
H 34.7454 0.0985643 0 
4
timestep 3.345
H -2.7039e-05 0.00019089 0 
H 0.201789 -0.979303 0 
H -1.40445 5.16633 0 
H 34.7454 0.0990082 0 
4
timestep 3.36
H -2.73493e-05 0.000192534 0 
H 0.216456 -0.976164 0 
H -1.4106 5.1646 0 
H 34.7453 0.0994522 0 
4
timestep 3.375
H -2.76613e-05 0.000194185 0 
H 0.231075 -0.972806 0 
H -1.41674 5.16286 0 
H 34.7453 0.0998961 0 
4
timestep 3.39
H -2.79752e-05 0.000195842 0 
H 0.245641 -0.969228 0 
H -1.42288 5.16112 0 
H 34.7452 0.10034 0 
4
timestep 3.405
H -2.82909e-05 0.000197505 0 
H 0.260153 -0.965433 0 
H -1.42901 5.15936 0 
H 34.7452 0.100784 0 
4
timestep 3.42
H -2.86084e-05 0.000199175 0 
H 0.274606 -0.96142 0 
H -1.43515 5.1576 0 
H 34.7452 0.101228 0 
4
timestep 3.435
H -2.89278e-05 0.000200852 0 
H 0.288997 -0.957191 0 
H -1.44128 5.15583 0 
H 34.7451 0.101672 0 
4
timestep 3.45
H -2.9249e-05 0.000202535 0 
H 0.303323 -0.952747 0 
H -1.44741 5.15406 0 
H 34.7451 0.102116 0 
4
timestep 3.465
H -2.9572e-05 0.000204225 0 
H 0.31758 -0.948088 0 
H -1.45354 5.15227 0 
H 34.745 0.10256 0 
4
timestep 3.48
H -2.98968e-05 0.000205922 0 
H 0.331767 -0.943216 0 
H -1.45967 5.15048 0 
H 34.745 0.103004 0 
4
timestep 3.495
H -3.02234e-05 0.000207625 0 
H 0.345878 -0.938132 0 
H -1.46579 5.14868 0 
H 34.7449 0.103448 0 
4
timestep 3.51
H -3.05519e-05 0.000209334 0 
H 0.359912 -0.932837 0 
H -1.47192 5.14687 0 
H 34.7449 0.103892 0 
4
timestep 3.525
H -3.08822e-05 0.000211051 0 
H 0.373865 -0.927331 0 
H -1.47804 5.14506 0 
H 34.7449 0.104336 0 
4
timestep 3.54
H -3.12143e-05 0.000212773 0 
H 0.387734 -0.921617 0 
H -1.48415 5.14324 0 
H 34.7448 0.104779 0 
4
timestep 3.555
H -3.15482e-05 0.000214503 0 
H 0.401515 -0.915696 0 
H -1.49027 5.14141 0 
H 34.7448 0.105223 0 
4
timestep 3.57
H -3.18839e-05 0.000216239 0 
H 0.415207 -0.909569 0 
H -1.49638 5.13957 0 
H 34.7447 0.105667 0 
4
timestep 3.585
H -3.22215e-05 0.000217981 0 
H 0.428804 -0.903237 0 
H -1.50249 5.13773 0 
H 34.7447 0.106111 0 
4
timestep 3.6
H -3.25609e-05 0.00021973 0 
H 0.442306 -0.896702 0 
H -1.5086 5.13587 0 
H 34.7446 0.106555 0 
4
timestep 3.615
H -3.2902e-05 0.000221486 0 
H 0.455708 -0.889965 0 
H -1.51471 5.13401 0 
H 34.7446 0.106999 0 
4
timestep 3.63
H -3.3245e-05 0.000223248 0 
H 0.469007 -0.883027 0 
H -1.52081 5.13215 0 
H 34.7445 0.107443 0 
4
timestep 3.645
H -3.35899e-05 0.000225017 0 
H 0.482201 -0.875891 0 
H -1.52692 5.13027 0 
H 34.7445 0.107887 0 
4
timestep 3.66
H -3.39365e-05 0.000226793 0 
H 0.495286 -0.868558 0 
H -1.53302 5.12839 0 
H 34.7444 0.108331 0 
4
timestep 3.675
H -3.42849e-05 0.000228575 0 
H 0.50826 -0.86103 0 
H -1.53912 5.1265 0 
H 34.7444 0.108775 0 
4
timestep 3.69
H -3.46352e-05 0.000230363 0 
H 0.521119 -0.853307 0 
H -1.54521 5.1246 0 
H 34.7444 0.109219 0 
4
timestep 3.705
H -3.49872e-05 0.000232159 0 
H 0.533862 -0.845393 0 
H -1.5513 5.1227 0 
H 34.7443 0.109663 0 
4
timestep 3.72
H -3.53411e-05 0.000233961 0 
H 0.546484 -0.837289 0 
H -1.5574 5.12079 0 
H 34.7443 0.110107 0 
4
timestep 3.735
H -3.56968e-05 0.000235769 0 
H 0.558983 -0.828996 0 
H -1.56349 5.11887 0 
H 34.7442 0.110551 0 
4
timestep 3.75
H -3.60543e-05 0.000237584 0 
H 0.571357 -0.820516 0 
H -1.56957 5.11694 0 
H 34.7442 0.110995 0 
4
timestep 3.765
H -3.64136e-05 0.000239406 0 
H 0.583602 -0.811852 0 
H -1.57566 5.115 0 
H 34.7441 0.111439 0 
4
timestep 3.78
H -3.67748e-05 0.000241235 0 
H 0.595715 -0.803005 0 
H -1.58174 5.11306 0 
H 34.7441 0.111882 0 
4
timestep 3.795
H -3.71377e-05 0.00024307 0 
H 0.607695 -0.793978 0 
H -1.58782 5.11111 0 
H 34.744 0.112326 0 
4
timestep 3.81
H -3.75025e-05 0.000244911 0 
H 0.619538 -0.784772 0 
H -1.5939 5.10916 0 
H 34.744 0.11277 0 
4
timestep 3.825
H -3.78691e-05 0.000246759 0 
H 0.631241 -0.775389 0 
H -1.59997 5.10719 0 
H 34.7439 0.113214 0 
4
timestep 3.84
H -3.82375e-05 0.000248614 0 
H 0.642803 -0.765832 0 
H -1.60604 5.10522 0 
H 34.7439 0.113658 0 
4
timestep 3.855
H -3.86077e-05 0.000250476 0 
H 0.65422 -0.756102 0 
H -1.61211 5.10324 0 
H 34.7438 0.114102 0 
4
timestep 3.87
H -3.89798e-05 0.000252344 0 
H 0.665489 -0.746202 0 
H -1.61818 5.10125 0 
H 34.7438 0.114546 0 
4
timestep 3.885
H -3.93536e-05 0.000254219 0 
H 0.676609 -0.736134 0 
H -1.62425 5.09926 0 
H 34.7437 0.11499 0 
4
timestep 3.9
H -3.97293e-05 0.0002561 0 
H 0.687577 -0.725901 0 
H -1.63031 5.09725 0 
H 34.7437 0.115434 0 
4
timestep 3.915
H -4.01068e-05 0.000257988 0 